96 atoms
 93 bonds
180 angles
243 dihedrals
120 impropers

3 atom types
4 bond types
7 angle types
7 dihedral types
6 improper types

 0.696054580     9.856854580 xlo xhi
 1.817578638    10.978378638 ylo yhi
-0.485494923     8.675305077 zlo zhi

Masses

1 12.011150 # c3
2 1.007970 # hc
3 12.011150 # c2

Pair Coeffs # lj/class2/coul/long

1 0.0540000000 4.0100000000 # c3
2 0.0200000000 2.9950000000 # hc
3 0.0540000000 4.0100000000 # c2

Bond Coeffs # class2

1 1.1010 345.0000 -691.8900 844.6000 # c3-hc
2 1.5300 299.6700 -501.7700 679.8100 # c3-c2
3 1.1010 345.0000 -691.8900 844.6000 # hc-c2
4 1.5300 299.6700 -501.7700 679.8100 # c2-c2

Angle Coeffs # class2

1 107.6600 39.6410 -12.9210 -2.4318 # hc-c3-hc
2 110.7700 41.4530 -10.6040 5.1290 # hc-c3-c2
3 107.6600 39.6410 -12.9210 -2.4318 # hc-c2-hc
4 110.7700 41.4530 -10.6040 5.1290 # c3-c2-hc
5 110.7700 41.4530 -10.6040 5.1290 # hc-c2-c2
6 112.6700 39.5160 -7.4430 -9.5583 # c3-c2-c2
7 112.6700 39.5160 -7.4430 -9.5583 # c2-c2-c2

Dihedral Coeffs # class2

1 -0.1432 0.0000 0.0617 0.0000 -0.1083 0.0000# hc-c3-c2-hc
2 0.0000 0.0000 0.0316 0.0000 -0.1681 0.0000# hc-c3-c2-c2
3 -0.1432 0.0000 0.0617 0.0000 -0.1083 0.0000# hc-c2-c2-hc
4 0.0000 0.0000 0.0316 0.0000 -0.1681 0.0000# hc-c2-c2-c2
5 0.0000 0.0000 0.0316 0.0000 -0.1681 0.0000# c3-c2-c2-hc
6 0.0000 0.0000 0.0514 0.0000 -0.1430 0.0000# c3-c2-c2-c2
7 0.0000 0.0000 0.0514 0.0000 -0.1430 0.0000# c2-c2-c2-c2

Improper Coeffs # class2

1 0.0000 0.0000
2 0.0000 0.0000
3 0.0000 0.0000
4 0.0000 0.0000
5 0.0000 0.0000
6 0.0000 0.0000

BondBond Coeffs

1 5.3316 1.1010 1.1010
2 3.3872 1.1010 1.5300
3 5.3316 1.1010 1.1010
4 3.3872 1.5300 1.1010
5 3.3872 1.1010 1.5300
6 0.0000 1.5300 1.5300
7 0.0000 1.5300 1.5300

BondAngle Coeffs

1 18.1030 18.1030 1.1010 1.1010
2 11.4210 20.7540 1.1010 1.5300
3 18.1030 18.1030 1.1010 1.1010
4 20.7540 11.4210 1.5300 1.1010
5 11.4210 20.7540 1.1010 1.5300
6 8.0160 8.0160 1.5300 1.5300
7 8.0160 8.0160 1.5300 1.5300

AngleAngle Coeffs

1 -0.3157 -0.3157 -0.3157 107.6600 107.6600 107.6600
2 0.2738 0.2738 -0.4825 107.6600 110.7700 110.7700
3 0.2738 -0.4825 0.2738 110.7700 107.6600 110.7700
4 0.2738 0.2738 -0.4825 107.6600 110.7700 110.7700
5 0.1184 -1.3199 -1.3199 110.7700 110.7700 112.6700
6 -1.3199 0.1184 -1.3199 110.7700 112.6700 110.7700

AngleAngleTorsion Coeffs

1 -12.5640 110.7700 110.7700
2 -16.1640 110.7700 112.6700
3 -12.5640 110.7700 110.7700
4 -16.1640 110.7700 112.6700
5 -16.1640 112.6700 110.7700
6 -22.0450 112.6700 112.6700
7 -22.0450 112.6700 112.6700

EndBondTorsion Coeffs

1 0.2130 0.3120 0.0777 0.2130 0.3120 0.0777 1.1010 1.1010
2 0.0814 0.0591 0.2219 0.2486 0.2422 -0.0925 1.1010 1.5300
3 0.2130 0.3120 0.0777 0.2130 0.3120 0.0777 1.1010 1.1010
4 0.0814 0.0591 0.2219 0.2486 0.2422 -0.0925 1.1010 1.5300
5 0.2486 0.2422 -0.0925 0.0814 0.0591 0.2219 1.5300 1.1010
6 -0.0732 0.0000 0.0000 -0.0732 0.0000 0.0000 1.5300 1.5300
7 -0.0732 0.0000 0.0000 -0.0732 0.0000 0.0000 1.5300 1.5300

MiddleBondTorsion Coeffs

1 -14.2610 -0.5322 -0.4864 1.5300
2 -14.8790 -3.6581 -0.3138 1.5300
3 -14.2610 -0.5322 -0.4864 1.5300
4 -14.8790 -3.6581 -0.3138 1.5300
5 -14.8790 -3.6581 -0.3138 1.5300
6 -17.7870 -7.1877 0.0000 1.5300
7 -17.7870 -7.1877 0.0000 1.5300

BondBond13 Coeffs

1 0.0000 1.1010 1.1010
2 0.0000 1.1010 1.5300
3 0.0000 1.1010 1.1010
4 0.0000 1.1010 1.5300
5 0.0000 1.5300 1.1010
6 0.0000 1.5300 1.5300
7 0.0000 1.5300 1.5300

AngleTorsion Coeffs

1 -0.8085 0.5569 -0.2466 -0.8085 0.5569 -0.2466 110.7700 110.7700
2 0.3113 0.4516 -0.1988 -0.2454 0.0000 -0.1136 110.7700 112.6700
3 -0.8085 0.5569 -0.2466 -0.8085 0.5569 -0.2466 110.7700 110.7700
4 0.3113 0.4516 -0.1988 -0.2454 0.0000 -0.1136 110.7700 112.6700
5 -0.2454 0.0000 -0.1136 0.3113 0.4516 -0.1988 112.6700 110.7700
6 0.3886 -0.3139 0.1389 0.3886 -0.3139 0.1389 112.6700 112.6700
7 0.3886 -0.3139 0.1389 0.3886 -0.3139 0.1389 112.6700 112.6700

Atoms # full

  1      1   1 -0.159000     6.604461002     3.586085686     5.364481687   0   1   0 # c3
  2      1   2  0.053000     6.894786610     4.022718417     6.330580459   0   1   0 # hc
  3      1   2  0.053000     7.314779609     3.950771599     4.612033539   0   1   0 # hc
  4      1   2  0.053000     5.606022917     3.969091269     5.104165507   0   1   0 # hc
  5      2   3 -0.106000     6.608589871     2.061913304     5.418187323   0   1   0 # c2
  6      2   2  0.053000     6.456460023    10.831237834     4.398340784   0   0   0 # hc
  7      2   2  0.053000     5.745224134    10.879364391     6.009828321   0   0   0 # hc
  8      3   3 -0.106000     7.903265530    10.647792740     6.005024093   0   0   0 # c2
  9      3   2  0.053000     8.048862342     1.863693803     7.033479610   0   1   0 # hc
 10      3   2  0.053000     8.760883737     1.871024730     5.428396743   0