ITEM: TIMESTEP
0
ITEM: NUMBER OF ATOMS
100
ITEM: BOX BOUNDS pp pp pp
-5.0000000000000000e+01 5.0000000000000000e+01
-5.0000000000000000e+01 5.0000000000000000e+01
-5.0000000000000000e+01 5.0000000000000000e+01
ITEM: ATOMS id type xs ys zs
15 1 0.616994 0.0551282 0.00276208
13 2 0.636702 0.0530731 5.0751e-05
38 1 0.450123 0.548648 0.0114081
37 2 0.434971 0.557922 0.00222059
40 1 0.421964 0.568773 0.0128552
16 1 0.648052 0.0453861 0.0146141
74 1 0.604403 0.994278 0.0421706
92 1 0.202738 0.115883 0.0530082
76 1 0.577807 0.975884 0.0545899
73 2 0.589099 0.992387 0.0549067
75 1 0.585088 0.00700013 0.0679595
89 2 0.2123 0.120252 0.0700224
91 1 0.228392 0.109687 0.0754459
90 1 0.205769 0.135185 0.0816129
97 2 0.426574 0.436729 0.112242
98 1 0.440465 0.446166 0.101379
100 1 0.429252 0.417611 0.117469
99 1 0.410006 0.446411 0.117877
4 1 0.960461 0.576053 0.134579
1 2 0.95059 0.572211 0.151544
18 1 0.853555 0.925014 0.145395
2 1 0.945681 0.553394 0.156215
3 1 0.94563 0.587186 0.163837
20 1 0.836196 0.898116 0.158631
17 2 0.852973 0.908916 0.15725
19 1 0.869166 0.903619 0.167724
71 1 0.179328 0.0285928 0.193484
68 1 0.370036 0.892066 0.191587
65 2 0.379598 0.909632 0.191537
66 1 0.399592 0.910135 0.191608
67 1 0.369167 0.926696 0.191416
72 1 0.147322 0.020352 0.203862
69 2 0.165706 0.0270249 0.208044
70 1 0.170469 0.0321299 0.226785
64 1 0.00561554 0.338699 0.264619
87 1 0.560124 0.339448 0.265928
61 2 0.0149555 0.356355 0.263603
62 1 0.0345847 0.357509 0.267259
63 1 0.00466617 0.372857 0.258932
88 1 0.562615 0.305338 0.271429
86 1 0.532878 0.321824 0.278055
85 2 0.551873 0.322203 0.271804
28 1 0.241516 0.411618 0.477408
25 2 0.251587 0.428897 0.477383
26 1 0.271587 0.428815 0.477415
27 1 0.241659 0.446259 0.477326
48 1 0.307411 0.798327 0.464847
45 2 0.297602 0.797375 0.482251
47 1 0.278965 0.8045 0.483629
46 1 0.30643 0.789298 0.498277
44 1 0.327029 0.920833 0.530832
41 2 0.321529 0.93494 0.543898
42 1 0.333108 0.950997 0.546743
43 1 0.304449 0.932991 0.55412
78 1 0.807714 0.983918 0.56143
79 1 0.83114 0.960377 0.571281
77 2 0.816325 0.973022 0.575822
10 1 0.188367 0.621194 0.586119
12 1 0.192268 0.587768 0.594334
11 1 0.163533 0.604675 0.603738
9 2 0.181389 0.604545 0.594731
80 1 0.81012 0.97477 0.594755
36 1 0.435749 0.909634 0.610706
35 1 0.402948 0.918739 0.617127
29 2 0.37465 0.740919 0.632143
30 1 0.35746 0.75099 0.630379
32 1 0.391578 0.748678 0.624846
33 2 0.420177 0.91061 0.623219
56 1 0.671389 0.5067 0.647521
31 1 0.374911 0.723091 0.641202
34 1 0.421833 0.903457 0.641822
53 2 0.665944 0.521905 0.659317
55 1 0.646645 0.524703 0.663757
54 1 0.679798 0.534313 0.666673
23 1 0.896665 0.698749 0.685998
7 1 0.991816 0.212055 0.717969
8 1 8.43105e-05 0.245695 0.718016
21 2 0.901928 0.702904 0.70484
24 1 0.915003 0.691164 0.714391
22 1 0.894116 0.718798 0.714132
95 1 0.859633 0.865602 0.70544
5 2 0.997098 0.228579 0.727922
93 2 0.865703 0.863374 0.724366
94 1 0.866844 0.845101 0.732417
96 1 0.870631 0.879418 0.735242
6 1 0.999394 0.227987 0.747781
83 1 0.835896 0.183968 0.953181
59 1 0.131518 0.695908 0.957568
84 1 0.830609 0.152915 0.967594
81 2 0.841148 0.169868 0.966356
52 1 0.189727 0.369208 0.967891
60 1 0.122962 0.662911 0.963733
57 2 0.136353 0.677751 0.96442
14 1 0.645061 0.0587051 0.982776
82 1 0.856939 0.17272 0.978294
49 2 0.190896 0.386683 0.977549
51 1 0.177103 0.400811 0.974364
39 1 0.432826 0.556347 0.982398
58 1 0.154577 0.674434 0.971961
50 1 0.205858 0.390029 0.990392
ITEM: TIMESTEP
1000
ITEM: NUMBER OF ATOMS
100
ITEM: BOX BOUNDS pp pp pp
-5.0000000000000000e+01 5.0000000000000000e+01
-5.0000000000000000e+01 5.0000000000000000e+01
-5.0000000000000000e+01 5.0000000000000000e+01
ITEM: ATOMS id type xs ys zs
15 1 0.618515 0.0559395 0.99798
13 2 0.638374 0.0535698 0.998045
38 1 0.445091 0.546037 0.011163
37 2 0.429673 0.553297 0.000694501
40 1 0.423318 0.571135 0.0071293
16 1 0.645152 0.0495004 0.016416
74 1 0.602932 0.992103 0.0410555
92 1 0.197589 0.106862 0.0556037
76 1 0.57258 0.97588 0.0536193
73 2 0.585317 0.990973 0.0504592
75 1 0.587096 0.00803778 0.0607366
89 2 0.206461 0.119274 0.0685354
91 1 0.224641 0.11147 0.0714682
90 1 0.202218 0.137713 0.0750159
97 2 0.426754 0.437416 0.110517
98 1 0.438287 0.447558 0.0977056
100 1 0.427531 0.417956 0.115066
99 1 0.407337 0.442058 0.109326
4 1 0.957631 0.573336 0.132379
1 2 0.945567 0.569807 0.147935
18 1 0.853953 0.922162 0.147633
2 1 0.945031 0.550128 0.151463
3 1 0.946545 0.585145 0.160733
20 1 0.835782 0.894644 0.150591
17 2 0.853817 0.902921 0.153089
19 1 0.866992 0.893681 0.164966
71 1 0.178713 0.0275111 0.191008
68 1 0.371725 0.892365 0.19308
65 2 0.380569 0.908783 0.185852
66 1 0.399662 0.908395 0.191797
67 1 0.369782 0.925517 0.187746
72 1 0.148044 0.0196371 0.201934
69 2 0.165367 0.0288357 0.205845
70 1 0.176788 0.0254885 0.221919
64 1 0.00493855 0.338451 0.264092
87 1 0.552617 0.340035 0.268331
61 2 0.00828872 0.35816 0.263531
62 1 0.0275339 0.353103 0.265543
63 1 0.993764 0.370777 0.268995
88 1 0.566965 0.309545 0.267828
86 1 0.53233 0.319456 0.279536
85 2 0.550471 0.320353 0.271163
28 1 0.240702 0.407719 0.479149
25 2 0.250073 0.424722 0.474345
26 1 0.269009 0.428052 0.479853
27 1 0.24409 0.443805 0.474573
48 1 0.305553 0.793184 0.465213
45 2 0.296815 0.797996 0.482548
47 1 0.277426 0.802396 0.480381
46 1 0.303784 0.794441 0.500955
44 1 0.326179 0.925356 0.528096
41 2 0.320149 0.932696 0.545696
42 1 0.332142 0.947845 0.550862
43 1 0.301978 0.930908 0.553858
78 1 0.811136 0.981417 0.559957
79 1 0.831731 0.958609 0.576875
77 2 0.815687 0.970525 0.576102
10 1 0.189571 0.62091 0.590517
12 1 0.189125 0.587258 0.590934
11 1 0.164741 0.603953 0.601507
9 2 0.184712 0.604266 0.600487
80 1 0.809324 0.976734 0.594017
36 1 0.439575 0.911894 0.612188
35 1 0.407015 0.909857 0.611636
29 2 0.373296 0.7377 0.62769
30 1 0.358664 0.749729 0.634111
32 1 0.391135 0.746712 0.62693
33 2 0.423228 0.908861 0.623304
56 1 0.672014 0.507163 0.649493
31 1 0.373292 0.720335 0.637612
34 1 0.425985 0.901251 0.641593
53 2 0.664448 0.521698 0.660961
55 1 0.646149 0.526225 0.667644
54 1 0.681948 0.530721 0.664474
23 1 0.895272 0.703232 0.686818
7 1 0.99267 0.212049 0.72137
8 1 0.00107881 0.247384 0.724363
21 2 0.899135 0.70471 0.706386
24 1 0.911844 0.692729 0.716129
22 1 0.900717 0.722461 0.715464
95 1 0.854752 0.865878 0.707739
5 2 0.000465727 0.228246 0.730139
93 2 0.867743 0.863017 0.722674
94 1 0.864663 0.849302 0.736901
96 1 0.865346 0.879677 0.733476
6 1 0.00279529 0.224746 0.749693
83 1 0.838874 0.181655 0.948116
59 1 0.129797 0.69363 0.95172
84 1 0.829505 0.154735 0.964124
81 2 0.839073 0.172222 0.965751
52 1 0.195797 0.371379 0.972147
60 1 0.122486 0.6651 0.96375
57 2 0.137587 0.678018 0.961496
14 1 0.645706 0.0624029 0.981667
82 1 0.855617 0.174452 0.976765
49 2 0.195633 0.390095 0.979194
51 1 0.176063 0.393703 0.977195
39 1 0.430266 0.55913 0.981573
58 1 0.153211 0.670738 0.971639
50 1 0.206899 0.397283 0.994075
ITEM: TIMESTEP
2000
ITEM: NUMBER OF ATOMS
100
ITEM: BOX BOUNDS pp pp pp
-5.0000000000000000e+01 5.0000000000000000e+01
-5.0000000000000000e+01 5.0000000000000000e+01
-5.0000000000000000e+01 5.0000000000000000e+01
ITEM: ATOMS id type xs ys zs
38 1 0.445904 0.544564 0.0129131
37 2 0.43244 0.549442 0.998951
40 1 0.422119 0.564903 0.00632726
16 1 0.643513 0.0511146 0.0177304
74 1 0.602307 0.992253 0.042648
92 1 0.194024 0.10844 0.0569336
76 1 0.577731 0.973413 0.0486875
73 2 0.583787 0.992414 0.0501974
75 1 0.576836 0.00723655 0.0616856
89 2 0.209262 0.119233 0.0640971
91 1 0.226533 0.109505 0.0667571
90 1 0.204642 0.131176 0.0794595
98 1 0.438329 0.439725 0.0994615
99 1 0.407251 0.442399 0.104298
97 2 0.423739 0.433994 0.111882
100 1 0.423063 0.414915 0.117846
4 1 0.954604 0.56999 0.129788
2 1 0.945672 0.552553 0.153588
1 2 0.947819 0.57178 0.148516
20 1 0.836028 0.894426 0.151117
17 2 0.853899 0.902593 0.154847
18 1 0.856206 0.921171 0.147811
3 1 0.93877 0.586245 0.158952
19 1 0.864628 0.892307 0.16823
71 1 0.182265 0.02882 0.193698
68 1 0.378019 0.890275 0.198785
65 2 0.378807 0.904162 0.184414
66 1 0.397055 0.904748 0.19258
67 1 0.371625 0.922466 0.188074
72 1 0.150311 0.0163735 0.202239
69 2 0.167129 0.026312 0.206528
70 1 0.174485 0.0215017 0.224493
64 1 0.00118211 0.334378 0.26279
61 2 0.00625927 0.353721 0.262485
62 1 0.0248411 0.35091 0.269328
88 1 0.565965 0.306781 0.274379
86 1 0.537557 0.315049 0.283657
85 2 0.553317 0.322258 0.273674
87 1 0.552635 0.341125 0.267074
63 1 0.994569 0.36893 0.268143
25 2 0.255046 0.421208 0.470833
27 1 0.24224 0.436471 0.472587
48 1 0.306322 0.782821 0.469432
28 1 0.246109 0.404412 0.476998
26 1 0.267886 0.426416 0.485254
47 1 0.277502 0.80452 0.47739
45 2 0.295476 0.796077 0.47976
46 1 0.297954 0.79514 0.499584
44 1 0.319956 0.923495 0.534469
41 2 0.318364 0.929106 0.553599
43 1 0.302399 0.935636 0.563723
42 1 0.331237 0.943843 0.557733
78 1 0.807956 0.981082 0.560088
77 2 0.819318 0.972052 0.573849
79 1 0.832975 0.957835 0.570478
12 1 0.192594 0.588068 0.590294
10 1 0.18958 0.620993 0.590452
11 1 0.162492 0.60339 0.598788
9 2 0.182451 0.603706 0.597546
80 1 0.816615 0.980451 0.591798
35 1 0.407637 0.908205 0.611973
36 1 0.439081 0.913353 0.611981
29 2 0.379072 0.735382 0.628125
30 1 0.360909 0.743654 0.626824
32 1 0.39475 0.747744 0.629294
33 2 0.424205 0.905595 0.622868
31 1 0.372923 0.717386 0.634319
34 1 0.428444 0.898737 0.641171
56 1 0.66906 0.503979 0.652184
53 2 0.663992 0.521024 0.661337
55 1 0.645164 0.519018 0.667777
54 1 0.674721 0.537661 0.658491
23 1 0.894094 0.703396 0.688829
24 1 0.915606 0.697088 0.712487
21 2 0.898594 0.706621 0.708048
22 1 0.902035 0.725659 0.713118
95 1 0.86307 0.866601 0.703241
7 1 0.998713 0.216457 0.721147
5 2 0.00411618 0.230677 0.73413
8 1 0.00206518 0.249812 0.728683
93 2 0.862796 0.862945 0.722902
94 1 0.863967 0.846609 0.734381
96 1 0.858173 0.881782 0.727778
6 1 0.999741 0.227569 0.753397
83 1 0.842205 0.186283 0.948986
59 1 0.133674 0.694511 0.955305
84 1 0.828784 0.154825 0.963419
81 2 0.834498 0.17398 0.962742
60 1 0.119679 0.661708 0.964621
58 1 0.150624 0.670502 0.969027
57 2 0.133722 0.674912 0.959287
14 1 0.64211 0.0600437 0.988726
82 1 0.851695 0.170839 0.972458
52 1 0.197558 0.369588 0.977525
51 1 0.176893 0.397508 0.974644
49 2 0.19144 0.387486 0.984023
39 1 0.434731 0.555573 0.980053
15 1 0.617926 0.0487652 0.00118221
13 2 0.637365 0.0442156 0.999993
50 1 0.205917 0.398816 0.9919
ITEM: TIMESTEP
3000
ITEM: NUMBER OF ATOMS
100
ITEM: BOX BOUNDS pp pp pp
-5.0000000000000000e+01 5.0000000000000000e+01
-5.0000000000000000e+01 5.0000000000000000e+01
-5.0000000000000000e+01 5.0000000000000000e+01
ITEM: ATOMS id type xs ys zs
15 1 0.612019 0.0471418 0.00959711
13 2 0.6296 0.0456755 0.00017707
38 1 0.450771 0.544522 0.00981053
40 1 0.425114 0.562181 0.0110829
16 1 0.646625 0.0430189 0.0103308
76 1 0.575712 0.973675 0.0517479
73 2 0.58724 0.990016 0.0520047
74 1 0.604625 0.985503 0.0432074
75 1 0.576332 0.00515253 0.0592088
92 1 0.192245 0.110946 0.053701
91 1 0.224594 0.104587 0.0641578
89 2 0.208063 0.115818 0.0649275
90 1 0.20494 0.128555 0.0800277
97 2 0.422165 0.431322 0.114357
99 1 0.404003 0.436516 0.107786
98 1 0.437742 0.436722 0.103035
100 1 0.433687 0.415042 0.11288
4 1 0.956681 0.573304 0.132067
2 1 0.945948 0.556236 0.147805
1 2 0.951445 0.575149 0.151282
20 1 0.833696 0.894939 0.15078
18 1 0.85511 0.923218 0.152665
3 1 0.935896 0.582196 0.161701
19 1 0.86513 0.896975 0.164759
17 2 0.851739 0.903543 0.151434
71 1 0.173883 0.0297418 0.191356
65 2 0.381311 0.899333 0.187349
66 1 0.398999 0.904306 0.195247
67 1 0.372276 0.917128 0.186051
72 1 0.151666 0.0147043 0.202146
69 2 0.164224 0.0287575 0.208841
68 1 0.378763 0.885626 0.201689
70 1 0.172015 0.0161544 0.222274
64 1 0.998994 0.328397 0.255154
87 1 0.551441 0.334989 0.265164
61 2 0.00466871 0.347417 0.257611
88 1 0.560965 0.305007 0.277202
85 2 0.553408 0.323103 0.281129
62 1 0.0200032 0.342427 0.269441
63 1 0.999088 0.365422 0.264294
86 1 0.534831 0.316071 0.27879
28 1 0.245651 0.406765 0.476769
25 2 0.256404 0.422274 0.470146
27 1 0.243218 0.436622 0.474643
48 1 0.305401 0.782799 0.470022
47 1 0.277287 0.803457 0.472714
26 1 0.268661 0.427528 0.48505
45 2 0.294414 0.796176 0.480039
46 1 0.296001 0.797237 0.499947
44 1 0.318369 0.922382 0.537369
41 2 0.31804 0.932248 0.554763
42 1 0.328693 0.949153 0.555609
78 1 0.811963 0.981491 0.555186
43 1 0.300295 0.932117 0.563988
79 1 0.829718 0.960224 0.567381
77 2 0.814629 0.972222 0.572706
12 1 0.193264 0.586723 0.588905
10 1 0.19471 0.62107 0.58711
11 1 0.165466 0.605219 0.596608
9 2 0.185124 0.60453 0.592986
80 1 0.81124 0.977525 0.59169
35 1 0.409731 0.906693 0.609251
36 1 0.444012 0.909962 0.616884
30 1 0.3591 0.741589 0.630632
29 2 0.376199 0.732929 0.636345
32 1 0.391931 0.745103 0.638417
33 2 0.425739 0.902712 0.62056
31 1 0.376436 0.713605 0.631195
34 1 0.423971 0.898743 0.640082
56 1 0.670403 0.502194 0.651502
53 2 0.66673 0.518431 0.662587
54 1 0.675517 0.53565 0.657461
55 1 0.647172 0.51434 0.663447
23 1 0.891551 0.703108 0.691438
95 1 0.864117 0.867424 0.70218
24 1 0.91695 0.704688 0.703163
21 2 0.898564 0.71021 0.708769
22 1 0.893852 0.729622 0.709767
7 1 0.998718 0.218857 0.72529
8 1 0.996181 0.247791 0.727536
93 2 0.864054 0.86324 0.721738
96 1 0.854578 0.880469 0.725394
5 2 0.00217221 0.232741 0.739265
94 1 0.862611 0.847153 0.733533
6 1 0.993651 0.218656 0.750623
83 1 0.837247 0.18159 0.938961
59 1 0.133883 0.694429 0.952587
84 1 0.824777 0.157142 0.958355
81 2 0.835962 0.173688 0.957288
60 1 0.124545 0.660327 0.959072
57 2 0.137603 0.67539 0.957455
58 1 0.150906 0.675171 0.972388
82 1 0.853529 0.171841 0.966668
52 1 0.197213 0.371185 0.979896
49 2 0.190866 0.389814 0.983458
51 1 0.171915 0.394007 0.978635
39 1 0.440422 0.558603 0.978495
14 1 0.635297 0.0602753 0.987752
50 1 0.20365 0.403063 0.991269
37 2 0.438259 0.554709 0.997992
ITEM: TIMESTEP
4000
ITEM: NUMBER OF ATOMS
100
ITEM: BOX BOUNDS pp pp pp
-5.0000000000000000e+01 5.0000000000000000e+01
-5.0000000000000000e+01 5.0000000000000000e+01
-5.0000000000000000e+01 5.0000000000000000e+01
ITEM: ATOMS id type xs ys zs
15 1 0.617 0.0499853 0.0125706
13 2 0.630931 0.0445593 0.999286
16 1 0.643962 0.0402124 0.0138224
38 1 0.449969 0.546029 0.0011788
40 1 0.426898 0.568099 0.0129127
92 1 0.192193 0.108761 0.0543948
76 1 0.581562 0.973506 0.0439983
74 1 0.600663 0.984186 0.0411468
73 2 0.589189 0.986245 0.0573979
75 1 0.582889 0.00519875 0.0563665
91 1 0.220857 0.104612 0.0746096
89 2 0.205317 0.11532 0.0679869
90 1 0.199895 0.129845 0.0806206
99 1 0.404643 0.433342 0.115791
98 1 0.439333 0.437908 0.108784
100 1 0.427811 0.410455 0.116252
97 2 0.424089 0.429917 0.118971
4 1 0.958711 0.577168 0.131539
2 1 0.949369 0.554463 0.150948
1 2 0.95206 0.574266 0.150176
20 1 0.835574 0.893862 0.150521
17 2 0.852791 0.903975 0.151671
18 1 0.855381 0.923409 0.155625
3 1 0.940377 0.583639 0.163429
19 1 0.863309 0.895736 0.166554
71 1 0.172586 0.0362357 0.196254
65 2 0.385758 0.89612 0.188287
66 1 0.398332 0.910848 0.193285
67 1 0.377259 0.914093 0.186113
72 1 0.141869 0.0162399 0.20499
69 2 0.159642 0.0252295 0.206805
68 1 0.371472 0.886907 0.198825
70 1 0.173031 0.0172766 0.219354
87 1 0.552651 0.342584 0.270656
64 1 -5.2038e-05 0.328939 0.260883
61 2 0.00750844 0.347454 0.260706
63 1 0.998839 0.36531 0.258261
88 1 0.563784 0.307029 0.273496
86 1 0.53563 0.320223 0.284355
85 2 0.55418 0.324008 0.277909
62 1 0.0236054 0.344966 0.272312
28 1 0.245416 0.406264 0.47821
25 2 0.254353 0.424055 0.476305
27 1 0.239519 0.436228 0.47067
48 1 0.303601 0.779787 0.465694
47 1 0.279121 0.80456 0.471842
26 1 0.271696 0.429555 0.484609
45 2 0.291755 0.790294 0.477912
46 1 0.296166 0.798669 0.49553
44 1 0.318857 0.91884 0.540381
41 2 0.317763 0.936798 0.549118
42 1 0.329384 0.948041 0.560889
78 1 0.812677 0.984545 0.563271
43 1 0.301872 0.935848 0.561225
79 1 0.832456 0.958034 0.563559
77 2 0.818641 0.968471 0.57357
12 1 0.191702 0.585844 0.58391
10 1 0.191783 0.620786 0.590987
80 1 0.814285 0.969173 0.593077
9 2 0.187832 0.6017 0.595469
11 1 0.168221 0.603248 0.599078
35 1 0.415576 0.907473 0.607671
36 1 0.447174 0.918019 0.617583
31 1 0.37815 0.711867 0.634129
30 1 0.360796 0.741139 0.629503
33 2 0.433348 0.903653 0.61601
29 2 0.378186 0.731822 0.632785
32 1 0.392526 0.744315 0.638973
34 1 0.43162 0.90657 0.635721
56 1 0.671197 0.503816 0.645405
54 1 0.670399 0.535255 0.660123
55 1 0.646437 0.512239 0.666622
53 2 0.664905 0.516025 0.659943
23 1 0.884249 0.700377 0.69581
24 1 0.91451 0.705518 0.701897
95 1 0.866675 0.868734 0.70396
21 2 0.896208 0.710804 0.707988
22 1 0.890472 0.729959 0.707568
7 1 0.997674 0.221734 0.720575
8 1 0.995204 0.248219 0.732135
93 2 0.86592 0.865878 0.72374
96 1 0.85386 0.881833 0.723823
5 2 0.00126941 0.230198 0.738336
94 1 0.857925 0.848 0.727797
6 1 0.993004 0.223235 0.755164
83 1 0.834732 0.186796 0.940104
81 2 0.838229 0.177124 0.957257
57 2 0.138549 0.67656 0.961631
59 1 0.136282 0.693843 0.951825
84 1 0.831111 0.158897 0.961396
82 1 0.853444 0.175419 0.970125
60 1 0.124573 0.66319 0.956539
52 1 0.194151 0.373898 0.980721
51 1 0.170299 0.403027 0.982978
49 2 0.187287 0.392483 0.983459
39 1 0.439216 0.562056 0.97956
58 1 0.151272 0.669565 0.975385
14 1 0.640732 0.0581872 0.988413
50 1 0.2009 0.403434 0.993194
37 2 0.433307 0.556586 0.997867
