ITEM: TIMESTEP
0
ITEM: NUMBER OF ATOMS
1545
ITEM: BOX BOUNDS pp pp pp
-2.0000000000000000e+01 2.0000000000000000e+01
-2.0000000000000000e+01 2.0000000000000000e+01
-2.0000000000000000e+01 2.0000000000000000e+01
ITEM: ATOMS id type xs ys zs
1363 1 0.0135459 0.00420663 0.00251356
1212 1 0.61483 0.0110234 0.012825
1001 1 0.525809 0.0613603 0.0162434
1532 2 0.634344 0.0536603 3.78148e-05
23 1 0.0729678 0.0848418 0.0309202
436 1 0.503175 0.0778694 0.0178573
497 1 0.368246 0.110193 0.00904333
412 1 0.424771 0.128817 0.0292212
1545 2 0.867525 0.12147 0.0193533
100 1 0.169225 0.169692 0.0162222
1015 1 0.568404 0.165051 0.00492214
738 1 0.0547471 0.20499 0.00145267
279 1 0.812471 0.204439 0.0124769
1262 1 0.877967 0.193237 0.0344771
111 1 0.16959 0.238393 0.0146882
5 1 0.626956 0.248425 0.00699641
697 1 0.975893 0.226182 0.00424293
763 1 0.632371 0.27458 0.0156032
1407 1 0.832417 0.282298 0.0185036
408 1 0.854966 0.29592 0.0279098
617 1 0.876 0.314406 0.0273176
1234 1 0.0410874 0.346383 0.0271502
274 1 0.0688562 0.350314 0.0272306
456 1 0.055348 0.347201 0.00300106
1009 1 0.0300833 0.358955 0.00479971
312 1 0.0327516 0.386714 0.0060447
1480 1 0.0518893 0.370585 0.0183468
908 1 0.158291 0.39906 0.000495144
948 1 0.452294 0.418561 0.0277638
101 1 0.632337 0.416563 0.035294
1201 1 0.783227 0.409501 0.00314225
1003 1 0.794467 0.421153 0.0260634
565 1 0.810417 0.405673 0.00893312
417 1 0.343872 0.45493 0.0096172
739 1 0.611985 0.434015 0.0272091
1 1 0.801252 0.430861 0.000624043
806 1 0.167768 0.548491 0.0106882
354 1 0.195718 0.546531 0.0122393
566 1 0.872586 0.548225 0.0167816
490 1 0.352388 0.592493 0.0322579
1330 1 0.638105 0.599023 0.0282556
135 1 0.656368 0.619038 0.0209549
48 1 0.101926 0.65519 0.0144307
47 1 0.0798377 0.66656 0.0274805
926 1 0.390853 0.673942 0.00255314
624 1 0.386689 0.678245 0.0297557
205 1 0.0988343 0.683073 0.0150751
1366 1 0.365675 0.682291 0.0118922
1210 1 0.362786 0.709828 0.00565438
737 1 0.387725 0.699849 0.0122343
1320 1 0.744851 0.716846 0.035665
816 1 0.0425869 0.758613 0.00403508
750 1 0.242152 0.8481 0.0135067
726 1 0.261851 0.936218 0.0168415
390 1 0.656272 0.956507 0.0190521
211 1 0.92955 0.94663 0.0158356
1332 1 0.189689 0.00235764 0.0458693
1018 1 0.70798 0.0132123 0.0584202
532 1 0.278791 0.0468425 0.0636646
1531 2 0.60852 0.0358805 0.0541083
1544 2 0.861834 0.0655752 0.0468005
1208 1 0.0679007 0.103676 0.051079
126 1 0.0941742 0.09853 0.0428478
40 1 0.0796899 0.0790652 0.0573927
7 1 0.0885028 0.102477 0.0699915
578 1 0.106942 0.0828655 0.0621081
36 1 0.554299 0.10377 0.0628827
74 1 0.650152 0.112396 0.038719
1362 1 0.875231 0.165574 0.0383243
451 1 0.362259 0.197994 0.0693034
386 1 0.887633 0.181317 0.057969
631 1 0.019292 0.240796 0.0663372
1479 1 0.697125 0.22082 0.0591013
326 1 0.580726 0.264775 0.0687555
18 1 0.352524 0.297327 0.0460248
50 1 0.373438 0.28939 0.062866
874 1 0.3583 0.312295 0.0689729
324 1 0.864724 0.306705 0.0518488
592 1 0.435316 0.415616 0.0498373
462 1 0.457565 0.398718 0.0468066
467 1 0.461277 0.425812 0.0532762
1163 1 0.605537 0.409272 0.0388683
383 1 0.082968 0.442556 0.0380433
1313 1 0.590551 0.432085 0.0451264
360 1 0.61681 0.429684 0.0545531
931 1 0.914409 0.466654 0.0479176
1412 1 0.650871 0.520623 0.0674738
63 1 0.674943 0.532144 0.0588115
1255 1 0.670613 0.504723 0.055807
661 1 0.695814 0.514259 0.0636305
1218 1 0.0312261 0.589543 0.0437859
742 1 0.00501882 0.579619 0.045249
275 1 0.660159 0.604567 0.0446967
1364 1 0.753546 0.599403 0.0693153
1349 1 0.564803 0.639655 0.0433426
1039 1 0.573326 0.642394 0.069938
1213 1 0.639128 0.623041 0.0427312
713 1 0.831402 0.612416 0.0630269
1011 1 0.261538 0.66425 0.0581436
840 1 0.575796 0.663935 0.0521236
1054 1 0.352746 0.741911 0.0634585
1190 1 0.647662 0.807325 0.0534363
1085 1 0.0244571 0.849277 0.0662418
290 1 0.327115 0.823885 0.0409043
792 1 0.636365 0.83301 0.0537147
882 1 0.0897171 0.875471 0.0419115
869 1 0.94198 0.857682 0.053819
625 1 0.172776 0.96371 0.0711274
81 1 0.151833 0.974079 0.0557162
1416 1 0.172315 0.99095 0.0643569
433 1 0.331587 0.978404 0.0367781
1323 1 0.259382 0.030574 0.0757502
1543 2 0.855536 0.00991265 0.0745969
230 1 0.0123876 0.0990541 0.0976873
551 1 0.0268634 0.0751877 0.100568
525 1 0.241264 0.169563 0.0857199
1103 1 0.22505 0.178934 0.106619
1431 1 0.335086 0.193708 0.0748469
684 1 0.354292 0.189779 0.0949256
131 1 0.716818 0.211705 0.0768933
560 1 0.348386 0.215735 0.0860443
280 1 0.70914 0.238695 0.0770897
537 1 0.371242 0.29814 0.089373
1443 1 0.779804 0.319013 0.100326
960 1 0.434419 0.332444 0.0835599
1405 1 0.452642 0.341022 0.1031
826 1 0.737945 0.336673 0.104176
62 1 0.777946 0.339558 0.0813204
709 1 0.755659 0.323709 0.0869286
373 1 0.765237 0.342246 0.10603
642 1 0.978701 0.348898 0.0952545
819 1 0.25602 0.387495 0.0890388
988 1 0.507906 0.378895 0.0918539
1393 1 0.450478 0.408203 0.072183
72 1 0.68938 0.417451 0.0924304
320 1 0.983067 0.413523 0.0740395
1095 1 0.520227 0.495186 0.106608
1036 1 0.685439 0.490768 0.0749034
1081 1 0.814095 0.494621 0.0974561
492 1 0.108676 0.519373 0.0952005
918 1 0.528503 0.513155 0.0867066
52 1 0.674438 0.515514 0.0815597
288 1 0.663045 0.540952 0.0824778
109 1 0.826118 0.594748 0.0841386
1008 1 0.30485 0.615165 0.0738998
1481 1 0.753987 0.626269 0.0774478
199 1 0.777974 0.612116 0.0744634
1093 1 0.805786 0.611023 0.0738676
314 1 0.850235 0.608951 0.0834483
1231 1 0.826256 0.622326 0.0890385
1326 1 0.845458 0.63446 0.0728081
892 1 0.00708215 0.710796 0.0852763
937 1 0.462409 0.700309 0.0969839
444 1 0.23744 0.745235 0.0952872
1401 1 0.227752 0.727555 0.0757675
623 1 0.65602 0.724406 0.0916515
1108 1 0.761452 0.722324 0.101825
458 1 0.132075 0.782774 0.0896281
1162 1 0.958155 0.771884 0.0820713
1501 2 0.00834095 0.811288 0.0934032
670 1 0.468067 0.802349 0.0826899
254 1 0.549013 0.812723 0.0969719
876 1 0.0298082 0.854297 0.0931003
112 1 0.0463148 0.835602 0.0767524
258 1 0.27083 0.838823 0.0975175
1542 2 0.849076 0.95562 0.103986
939 1 0.153888 0.980903 0.0828561
441 1 0.181031 0.983009 0.0896501
1230 1 0.484935 0.992258 0.100039
217 1 0.477578 0.966046 0.106838
890 1 0.819993 0.994512 0.103665
541 1 0.0856193 0.00310068 0.113202
1530 2 0.582722 0.0176924 0.108052
694 1 0.815236 0.00320158 0.129898
399 1 0.841552 0.000504354 0.120555
1438 1 0.825297 0.0211384 0.110813
1175 1 0.938664 0.043503 0.113174
516 1 0.0316284 0.096676 0.117975
430 1 0.264181 0.0868163 0.122098
253 1 0.63058 0.163451 0.12748
1433 1 0.111388 0.240854 0.126661
484 1 0.110254 0.214944 0.13672
389 1 0.881789 0.221285 0.136887
53 1 0.755547 0.317263 0.114186
289 1 0.672859 0.323445 0.112392
910 1 0.656871 0.327143 0.135155
466 1 0.893043 0.368484 0.11385
962 1 0.964401 0.35832 0.117485
894 1 0.272378 0.400641 0.107668
719 1 0.821788 0.416548 0.112131
1321 1 0.421637 0.456961 0.138128
1319 1 0.593019 0.44501 0.137159
1236 1 0.810797 0.436801 0.128146
358 1 0.0716228 0.62662 0.139158
1504 2 0.96526 0.633613 0.135933
1503 2 0.980077 0.692838 0.121537
1502 2 0.994551 0.752111 0.107499
243 1 0.426453 0.797635 0.14098
415 1 0.546341 0.807687 0.124448
588 1 0.444917 0.904715 0.135978
864 1 0.47207 0.897883 0.13785
20 1 0.878375 0.948762 0.141662
480 1 0.625161 0.999811 0.1236
10 1 0.869211 0.996589 0.119788
875 1 0.882065 0.975336 0.132938
1116 1 0.205031 0.0600507 0.150645
923 1 0.20005 0.0425736 0.172028
115 1 0.193846 0.0698334 0.17445
733 1 0.94015 0.100622 0.148675
610 1 0.842156 0.122674 0.17774
589 1 0.0857248 0.2081 0.147894
428 1 0.108277 0.191925 0.152273
648 1 0.13071 0.208695 0.154494
714 1 0.320124 0.185979 0.175734
1226 1 0.347724 0.185349 0.17111
172 1 0.334007 0.209765 0.170632
465 1 0.445359 0.185929 0.173449
147 1 0.46839 0.201192 0.168542
246 1 0.106087 0.216646 0.164969
676 1 0.0940674 0.234807 0.147764
1356 1 0.122069 0.235178 0.151872
1293 1 0.672354 0.248536 0.146472
813 1 0.108039 0.258926 0.147856
367 1 0.22798 0.258875 0.167921
1000 1 0.534972 0.273883 0.147232
113 1 0.0578876 0.352998 0.151327
981 1 0.329723 0.355295 0.155743
878 1 0.302437 0.359842 0.151027
1283 1 0.138109 0.43792 0.164868
103 1 0.164872 0.436908 0.156519
576 1 0.152992 0.461336 0.162851
38 1 0.179229 0.456437 0.170816
340 1 0.678974 0.452044 0.169257
862 1 0.34429 0.476835 0.160055
1119 1 0.675403 0.475872 0.154873
769 1 0.701279 0.466174 0.159754
1434 1 0.0418834 0.523926 0.164859
478 1 0.216846 0.532585 0.161518
1506 2 0.935587 0.515441 0.165123
306 1 0.742878 0.549781 0.173267
955 1 0.169845 0.591192 0.15646
457 1 0.592466 0.582743 0.154229
1505 2 0.950481 0.574392 0.150154
468 1 0.0446364 0.630229 0.145952
178 1 0.0647859 0.640307 0.162682
43 1 0.0606203 0.612617 0.160845
156 1 0.762962 0.638296 0.144767
762 1 0.932847 0.616142 0.16768
1382 1 0.195519 0.668018 0.177469
804 1 0.788243 0.643822 0.15562
1376 1 0.0947038 0.724705 0.145662
912 1 0.103039 0.737859 0.169007
1134 1 0.332049 0.745176 0.164665
1309 1 0.415138 0.821113 0.151384
655 1 0.315202 0.847671 0.164936
264 1 0.194198 0.881965 0.178017
508 1 0.300765 0.87062 0.157932
548 1 0.318679 0.891341 0.152114
575 1 0.325249 0.864975 0.145346
485 1 0.324808 0.872923 0.172297
1541 2 0.849536 0.908281 0.143945
968 1 0.548883 0.951785 0.155058
125 1 0.901339 0.963086 0.149172
1529 2 0.556895 0.999236 0.16189
621 1 0.627738 0.980921 0.144191
657 1 0.084252 0.0229787 0.203532
1076 1 0.369219 0.0316018 0.21073
1055 1 0.279855 0.0608627 0.212236
690 1 0.852683 0.039639 0.212366
251 1 0.84423 0.127409 0.205274
1329 1 0.865564 0.115678 0.191333
463 1 0.886516 0.108364 0.208078
1050 1 0.517354 0.171013 0.207548
1132 1 0.313819 0.209347 0.18991
162 1 0.337782 0.195976 0.195042
310 1 0.359334 0.208308 0.182284
563 1 0.245208 0.239467 0.178597
861 1 0.721417 0.235396 0.195261
194 1 0.844661 0.222062 0.197704
308 1 0.93272 0.22846 0.213362
232 1 0.23024 0.255893 0.195732
668 1 0.703138 0.255732 0.201569
22 1 0.360705 0.296434 0.190467
1007 1 0.0584747 0.347682 0.178874
1509 2 0.890175 0.338749 0.209495
400 1 0.241683 0.386207 0.187913
1286 1 0.720347 0.373514 0.20343
1160 1 0.973724 0.371702 0.200824
842 1 0.00912855 0.423525 0.191464
687 1 0.249588 0.411816 0.179596
1311 1 0.467746 0.407163 0.193056
1181 1 0.55146 0.394967 0.202452
1295 1 0.719516 0.400058 0.212496
33 1 0.80207 0.394014 0.190413
1508 2 0.90536 0.397624 0.194844
88 1 0.134842 0.430936 0.191741
401 1 0.13588 0.457924 0.184516
686 1 0.158864 0.442042 0.18316
1507 2 0.920521 0.456517 0.180052
674 1 0.161267 0.469249 0.188285
1423 1 0.860841 0.484498 0.190439
1473 1 0.394086 0.515526 0.20048
1312 1 0.684389 0.533658 0.188409
1375 1 0.038287 0.536484 0.189694
1049 1 0.384371 0.541285 0.194443
1354 1 0.410904 0.537757 0.202481
607 1 0.945886 0.553425 0.193717
611 1 0.290154 0.626002 0.211458
139 1 0.541776 0.625465 0.18821
29 1 0.669656 0.633205 0.20952
420 1 0.95817 0.612503 0.179212
595 1 0.220697 0.67454 0.188003
545 1 0.394817 0.694781 0.190233
605 1 0.860141 0.710006 0.185571
1099 1 0.874145 0.720837 0.207344
940 1 0.600152 0.756779 0.190625
967 1 0.801698 0.770016 0.212129
836 1 0.207805 0.787344 0.190448
1200 1 0.232113 0.800121 0.184676
809 1 0.220499 0.802875 0.210072
886 1 0.790528 0.813581 0.184508
787 1 0.992193 0.785934 0.192209
907 1 0.656741 0.850074 0.190644
30 1 0.816233 0.824029 0.188721
523 1 0.556664 0.859237 0.197633
1540 2 0.847767 0.86096 0.185095
93 1 0.0427179 0.960444 0.187662
959 1 0.708048 0.953106 0.189135
839 1 0.733428 0.945589 0.179819
781 1 0.430652 0.969013 0.197905
1106 1 0.396299 0.0272681 0.216677
1250 1 0.297778 0.0568405 0.233373
1105 1 0.587525 0.0569829 0.225749
1436 1 0.605199 0.0545464 0.247408
343 1 0.274518 0.0721086 0.23732
672 1 0.295437 0.0822051 0.221503
495 1 0.298633 0.0799068 0.249227
422 1 0.989925 0.0916879 0.240001
1086 1 0.884005 0.116789 0.234596
1146 1 0.870329 0.130553 0.214478
148 1 0.898107 0.13255 0.216037
252 1 0.618505 0.207665 0.217863
28 1 0.95402 0.211502 0.220159
893 1 0.563532 0.279541 0.249734
228 1 0.664923 0.361769 0.247345
818 1 0.770002 0.426563 0.249554
257 1 0.898149 0.396407 0.242903
983 1 0.089821 0.491117 0.2244
140 1 0.245421 0.490286 0.217678
1028 1 0.679863 0.464761 0.238133
1455 1 0.869749 0.473609 0.214719
916 1 0.374518 0.527334 0.216565
556 1 0.144377 0.536636 0.235528
751 1 0.00724139 0.59132 0.235514
530 1 0.033919 0.596572 0.242214
574 1 0.80809 0.57186 0.249499
549 1 0.500163 0.624295 0.247915
418 1 0.64856 0.615764 0.215702
136 1 0.744074 0.644923 0.228859
1472 1 0.383457 0.762434 0.233021
1474 1 0.487772 0.763494 0.249653
682 1 0.808491 0.754558 0.234615
118 1 0.809491 0.782556 0.235971
216 1 0.82839 0.768531 0.220651
61 1 0.0345582 0.819078 0.236021
1157 1 0.100379 0.820471 0.227548
1539 2 0.845477 0.813661 0.226088
651 1 0.11814 0.835295 0.24343
1360 1 0.947335 0.856146 0.247877
106 1 0.871921 0.88814 0.217401
1467 1 0.250664 0.914991 0.24992
1398 1 0.451831 0.917609 0.248352
1528 2 0.531046 0.980674 0.215681
429 1 0.0170177 0.0160812 0.276032
221 1 0.978709 0.0779965 0.261777
1486 1 0.996099 0.0995687 0.266216
1233 1 0.118651 0.122205 0.274897
398 1 0.612748 0.145897 0.279629
915 1 0.844303 0.22699 0.268518
504 1 0.839132 0.249987 0.283744
725 1 0.0331012 0.343016 0.281519
188 1 0.134684 0.338533 0.262914
974 1 0.117792 0.350871 0.28168
546 1 0.240634 0.33196 0.256655
699 1 0.510819 0.344183 0.258224
846 1 0.123875 0.363814 0.257605
1194 1 0.143632 0.360988 0.277247
533 1 0.374986 0.390329 0.263749
1373 1 0.502313 0.36127 0.278794
727 1 0.0546456 0.429301 0.255105
539 1 0.534758 0.431617 0.270219
1466 1 0.508233 0.436385 0.262401
338 1 0.620958 0.441736 0.260777
1413 1 0.848616 0.443024 0.279983
336 1 0.869944 0.460829 0.276037
509 1 0.0177557 0.582035 0.259865
766 1 0.14676 0.598278 0.260088
746 1 0.503003 0.600968 0.263251
643 1 0.69052 0.571981 0.278955
785 1 0.991614 0.592011 0.258741
1172 1 0.0133028 0.609519 0.256052
1497 1 0.40213 0.607144 0.262318
291 1 0.477677 0.608604 0.253884
807 1 0.490208 0.623445 0.274137
37 1 0.86914 0.641177 0.263057
1067 1 0.549966 0.682325 0.280708
1415 1 0.092921 0.722809 0.251095
67 1 0.216917 0.730544 0.256135
832 1 0.728253 0.742087 0.255323
973 1 0.463768 0.75233 0.258739
1078 1 0.460204 0.760621 0.285233
483 1 0.471105 0.778357 0.266525
1538 2 0.843151 0.766196 0.266868
612 1 0.979341 0.779809 0.257006
718 1 0.234593 0.808251 0.279635
514 1 0.729526 0.814831 0.26027
472 1 0.729845 0.830707 0.283407
98 1 0.877377 0.836098 0.255051
1144 1 0.0735363 0.892548 0.256106
159 1 0.631872 0.871201 0.281243
554 1 0.0599599 0.909567 0.273811
1102 1 0.204615 0.960271 0.275494
1270 1 0.36605 0.95146 0.261374
1448 1 0.665081 0.950353 0.261679
933 1 0.677818 0.962385 0.283597
1386 1 0.891842 0.932514 0.284583
419 1 0.894489 0.942749 0.258589
723 1 0.36971 0.979076 0.258001
765 1 0.476825 0.995435 0.277155
1430 1 0.736302 0.970582 0.258683
569 1 0.764207 0.972445 0.256381
823 1 0.752523 0.966889 0.281282
1488 1 0.264105 0.018359 0.312879
665 1 0.87534 0.0330936 0.310689
593 1 0.900412 0.0263241 0.321318
1051 1 0.259711 0.0410796 0.297007
774 1 0.434941 0.0481519 0.28839
255 1 0.738865 0.0963772 0.302561
1068 1 0.756474 0.0745996 0.304321
856 1 0.109185 0.126 0.301039
296 1 0.588733 0.1577 0.288081
1141 1 0.976211 0.182679 0.288715
594 1 0.110954 0.242027 0.290474
154 1 0.131417 0.232472 0.30688
1143 1 0.209227 0.218083 0.309774
123 1 0.569703 0.247635 0.317912
927 1 0.132368 0.258814 0.297269
1220 1 0.113327 0.251838 0.316471
241 1 0.7647 0.309888 0.286548
722 1 0.0168267 0.333086 0.301973
65 1 0.0340999 0.354504 0.306991
793 1 0.00847239 0.354285 0.318194
488 1 0.140197 0.336447 0.290289
1342 1 0.603597 0.328254 0.287191
1489 1 0.594694 0.348999 0.30386
396 1 0.990621 0.342651 0.300088
1303 1 0.0115989 0.358251 0.290506
797 1 0.0192531 0.378155 0.308407
1331 1 0.239261 0.381582 0.310373
80 1 0.266705 0.375996 0.312125
1152 1 0.787194 0.365105 0.314132
169 1 0.287658 0.440626 0.298142
1249 1 0.516258 0.44168 0.288764
1274 1 0.971881 0.454295 0.291532
476 1 0.965685 0.481282 0.296088
239 1 0.680401 0.506651 0.29169
395 1 0.450619 0.545327 0.308144
969 1 0.561972 0.659293 0.291332
985 1 0.156764 0.737389 0.298473
1421 1 0.359596 0.734593 0.308967
1537 2 0.841222 0.718918 0.307759
645 1 0.0263433 0.752681 0.307048
1207 1 0.605986 0.768162 0.318231
1388 1 0.622226 0.789858 0.310951
606 1 0.301951 0.896431 0.314211
1370 1 0.0928817 0.956306 0.317406
590 1 0.106375 0.932953 0.30951
736 1 0.116576 0.958097 0.302591
1222 1 0.00322631 0.0307904 0.345641
266 1 0.690951 0.0206379 0.350623
1425 1 0.082885 0.0481552 0.344943
337 1 0.375561 0.051309 0.350962
259 1 0.985533 0.0449583 0.329099
888 1 0.952408 0.120565 0.338492
443 1 0.0493844 0.162251 0.356009
857 1 0.74351 0.164655 0.349174
393 1 0.802949 0.160369 0.322965
798 1 0.370582 0.204775 0.322754
1005 1 0.860665 0.195355 0.339359
1355 1 0.124258 0.232904 0.333848
66 1 0.355035 0.227821 0.326578
1271 1 0.577585 0.227742 0.336067
304 1 0.140642 0.253089 0.323297
633 1 0.121072 0.259505 0.342141
531 1 0.254274 0.276469 0.336083
1090 1 0.916514 0.25499 0.330263
1142 1 0.424282 0.301235 0.336121
166 1 0.670915 0.306823 0.336082
679 1 0.660114 0.289815 0.355613
656 1 0.929744 0.33765 0.332475
932 1 0.350411 0.363083 0.339839
1127 1 0.103622 0.422609 0.349627
660 1 0.128416 0.424058 0.337271
891 1 0.109919 0.444914 0.33431
1151 1 0.148253 0.429784 0.356107
712 1 0.277992 0.440889 0.324485
208 1 0.115007 0.466732 0.351027
305 1 0.20309 0.493494 0.345316
658 1 0.75418 0.495826 0.343804
439 1 0.193353 0.511246 0.325887
277 1 0.264802 0.532953 0.343293
1025 1 0.0256648 0.644848 0.351746
1490 1 0.45032 0.669691 0.35591
1045 1 0.787152 0.664386 0.341346
701 1 0.469972 0.68907 0.35084
730 1 0.747291 0.717637 0.331727
887 1 0.831127 0.740006 0.350374
9 1 0.857893 0.745855 0.344641
1264 1 0.816444 0.763904 0.350569
506 1 0.837428 0.760595 0.332458
281 1 0.860588 0.773553 0.341121
1339 1 0.483597 0.812836 0.337941
1240 1 0.0110641 0.848164 0.344481
1272 1 0.197868 0.882795 0.354571
1034 1 0.0945704 0.934471 0.334858
1287 1 0.117464 0.949593 0.329256
42 1 0.322187 0.00293706 0.363126
794 1 0.695815 0.0146457 0.377603
795 1 0.477841 0.0723145 0.390137
174 1 0.376641 0.138201 0.388048
620 1 0.397874 0.13078 0.371268
1079 1 0.550552 0.134133 0.380907
790 1 0.0462512 0.185802 0.370943
34 1 0.262568 0.279472 0.362722
345 1 0.919299 0.257635 0.358061
55 1 0.999063 0.254143 0.38711
1004 1 0.412608 0.308968 0.360439
1094 1 0.21544 0.32529 0.387522
1139 1 0.101423 0.402589 0.368813
799 1 0.126303 0.414097 0.363473
35 1 0.53274 0.407398 0.375135
379 1 0.555427 0.423669 0.372301
70 1 0.106405 0.428923 0.376752
104 1 0.0959761 0.447677 0.358669
587 1 0.123129 0.441293 0.358565
975 1 0.637112 0.454346 0.372417
1422 1 0.815343 0.462865 0.377156
1485 1 0.318408 0.479585 0.382639
1352 1 0.881268 0.468101 0.380796
426 1 0.105608 0.538481 0.387624
1402 1 0.770189 0.566393 0.368628
1333 1 0.171643 0.631471 0.380472
1087 1 0.889441 0.63542 0.360071
359 1 0.916616 0.641687 0.362545
268 1 0.158662 0.654994 0.388366
991 1 0.741594 0.64505 0.391662
717 1 0.89715 0.65911 0.372912
1082 1 0.924246 0.666238 0.373628
1138 1 0.120088 0.749267 0.378813
1334 1 0.519766 0.740384 0.387931
1390 1 0.0954026 0.751094 0.365719
527 1 0.0879665 0.778025 0.363817
348 1 0.101715 0.768965 0.386468
1027 1 0.114964 0.770879 0.361759
1261 1 0.842687 0.763597 0.360089
904 1 0.326282 0.814504 0.374759
493 1 0.0293768 0.843197 0.365155
24 1 0.211292 0.877229 0.378577
640 1 0.684427 0.882541 0.368465
1305 1 0.408226 0.916831 0.382125
1131 1 0.49165 0.900923 0.361082
1397 1 0.488754 0.92369 0.376973
1033 1 0.481905 0.898505 0.387269
1269 1 0.508762 0.904708 0.382776
1429 1 0.667069 0.90242 0.377957
844 1 0.693129 0.90897 0.370347
557 1 0.513002 0.931781 0.388164
596 1 0.699933 0.934999 0.377687
734 1 0.775808 0.962602 0.381799
598 1 0.689767 0.994052 0.359526
206 1 0.772879 0.981661 0.361428
999 1 0.772109 0.989624 0.388174
1183 1 0.796356 0.980888 0.376514
1060 1 0.901706 0.968904 0.368428
1111 1 0.0516789 0.024924 0.41058
248 1 0.796467 0.000569039 0.396312
757 1 0.963941 0.0321371 0.412699
1394 1 0.240109 0.035788 0.418269
637 1 0.252473 0.0429877 0.394174
302 1 0.17286 0.104672 0.402371
1465 1 0.14564 0.109132 0.397212
555 1 0.163653 0.130649 0.397096
1195 1 0.157005 0.118046 0.421271
372 1 0.233979 0.114171 0.4192
652 1 0.24082 0.135258 0.401997
641 1 0.260647 0.122715 0.417391
1030 1 0.808184 0.147285 0.411639
510 1 0.574336 0.228915 0.405831
327 1 0.574024 0.256526 0.400836
75 1 0.750536 0.252835 0.39711
649 1 0.81969 0.279277 0.413568
1044 1 0.844188 0.285153 0.401207
452 1 0.060112 0.30222 0.407112
391 1 0.224031 0.318 0.413222
817 1 0.820912 0.298735 0.393384
570 1 0.236972 0.338753 0.399463
1451 1 0.460758 0.36972 0.427071
78 1 0.00886413 0.398267 0.397731
1147 1 0.0214697 0.423282 0.399399
524 1 0.627416 0.458772 0.398375
87 1 0.391178 0.521891 0.427508
1378 1 0.516362 0.502137 0.422538
938 1 0.0152693 0.556154 0.393574
1353 1 0.0343703 0.556859 0.414119
1291 1 0.12939 0.538713 0.402519
292 1 0.442744 0.559906 0.409107
1346 1 0.6619 0.545631 0.412737
341 1 0.211366 0.572486 0.415506
157 1 0.163319 0.634512 0.407035
334 1 0.496734 0.614232 0.396704
1176 1 0.629895 0.630916 0.410438
1260 1 0.726724 0.641689 0.415151
411 1 0.747042 0.623417 0.408588
698 1 0.0283404 0.665203 0.420984
567 1 0.0547461 0.666918 0.411822
629 1 0.166222 0.661323 0.414576
382 1 0.184816 0.649686 0.39717
654 1 0.75367 0.649548 0.416524
970 1 0.503407 0.723637 0.403403
542 1 0.592237 0.735135 0.415285
167 1 0.146717 0.87466 0.407735
950 1 0.414725 0.906584 0.407428
522 1 0.494508 0.917342 0.403549
1396 1 0.521819 0.912234 0.40624
171 1 0.688654 0.893784 0.393663
1107 1 0.708599 0.913295 0.393192
1482 1 0.68156 0.920786 0.393168
585 1 0.246689 0.95247 0.419318
1246 1 0.269989 0.939004 0.427071
994 1 0.0562537 0.997615 0.406025
364 1 0.59856 0.99098 0.400527
1199 1 0.790112 0.974068 0.402953
635 1 0.219032 0.0220897 0.430652
57 1 0.450945 0.0307273 0.433862
409 1 0.77498 0.0829687 0.454679
142 1 0.0350674 0.136636 0.461133
214 1 0.241492 0.139046 0.429793
899 1 0.569652 0.13515 0.459078
768 1 0.0314899 0.154222 0.439561
673 1 0.39837 0.200427 0.457696
1164 1 0.650122 0.209247 0.436341
943 1 0.659202 0.182848 0.436472
573 1 0.675871 0.202996 0.446247
41 1 0.653004 0.19564 0.460653
602 1 0.115681 0.244449 0.447456
833 1 0.227462 0.223586 0.442484
917 1 0.249186 0.219647 0.459805
1316 1 0.660275 0.222606 0.458768
425 1 0.671193 0.227316 0.433363
374 1 0.941337 0.270253 0.455595
1338 1 0.837172 0.351011 0.448651
1450 1 0.37088 0.378707 0.452091
972 1 0.455808 0.362051 0.453606
335 1 0.378083 0.40386 0.462236
59 1 0.239869 0.482087 0.439974
347 1 0.174094 0.524058 0.458093
1122 1 0.450045 0.551526 0.434874
361 1 0.962253 0.584545 0.445511
821 1 0.251222 0.636593 0.450615
297 1 0.647306 0.62528 0.431711
877 1 0.743363 0.631386 0.43518
1187 1 0.910372 0.620422 0.433225
1242 1 0.0283792 0.663782 0.448951
94 1 0.0488363 0.651406 0.434374
1445 1 0.634853 0.650372 0.430042
1299 1 0.0475113 0.67944 0.435801
708 1 0.348471 0.749363 0.449529
195 1 0.810956 0.741504 0.449509
1096 1 0.05785 0.780089 0.442012
1417 1 0.351269 0.77684 0.444569
1056 1 0.420723 0.771982 0.432083
1221 1 0.0685856 0.804394 0.433447
1361 1 0.058026 0.801798 0.459562
538 1 0.0821064 0.78923 0.452729
1149 1 0.0810502 0.817104 0.455072
872 1 0.419496 0.798249 0.44188
1452 1 0.0561082 0.826055 0.445876
630 1 0.476614 0.86287 0.461851
1368 1 0.928593 0.868176 0.441563
667 1 0.0489698 0.899431 0.435396
1239 1 0.0760379 0.906418 0.432957
1117 1 0.282115 0.945577 0.451444
913 1 0.260873 0.961113 0.441866
1493 1 0.12251 0.0256123 0.466087
1358 1 0.6298 0.0463782 0.479174
845 1 0.951965 0.0574482 0.470404
1123 1 0.94422 0.046333 0.494978
384 1 0.394364 0.0807102 0.496131
995 1 0.627904 0.135985 0.498981
965 1 0.0226586 0.161475 0.46519
54 1 0.757253 0.154488 0.484381
137 1 0.424636 0.201002 0.467556
132 1 0.403007 0.199238 0.485347
1510 2 0.96268 0.234022 0.479985
1021 1 0.937558 0.27554 0.482893
1314 1 0.633085 0.305289 0.474598
936 1 0.633628 0.333191 0.471661
865 1 0.175305 0.358509 0.469092
1048 1 0.353758 0.392111 0.469829
12 1 0.0185457 0.411278 0.497672
786 1 0.0115526 0.412846 0.470541
1041 1 0.223314 0.415529 0.485751
956 1 0.625479 0.41908 0.482007
944 1 0.000499329 0.430916 0.488947
1112 1 0.0589201 0.522837 0.466282
526 1 0.0679393 0.514603 0.491546
73 1 0.477807 0.506664 0.496498
780 1 0.593597 0.577943 0.494462
552 1 0.458714 0.612869 0.486025
922 1 0.357985 0.658564 0.492485
1104 1 0.563301 0.663733 0.494894
1384 1 0.553576 0.689452 0.489292
952 1 0.917219 0.701938 0.477552
1118 1 0.424569 0.732165 0.497629
1101 1 0.494464 0.772872 0.495083
1527 2 0.265386 0.809381 0.489057
313 1 0.928947 0.811654 0.474021
1180 1 0.165756 0.856338 0.478226
1064 1 0.29319 0.844982 0.471103
1159 1 0.49844 0.850458 0.474382
238 1 0.862446 0.852881 0.494436
158 1 0.483101 0.869335 0.488376
14 1 0.583082 0.860443 0.464948
124 1 0.225854 0.924049 0.487054
1294 1 0.752895 0.900071 0.495789
1059 1 0.17225 0.00187442 0.503296
824 1 0.303929 0.0131917 0.525664
1449 1 0.48813 0.00395751 0.513855
141 1 0.705898 0.0338262 0.516573
160 1 0.841124 0.0111864 0.533747
1010 1 0.254453 0.0901225 0.52624
747 1 0.508721 0.0798781 0.511458
811 1 0.194261 0.139872 0.527172
1225 1 0.474037 0.132357 0.521649
1061 1 0.169167 0.149795 0.53382
949 1 0.188983 0.167432 0.525553
881 1 0.213744 0.158523 0.534858
1284 1 0.278353 0.213477 0.519216
196 1 0.895472 0.20435 0.514103
571 1 0.195648 0.253318 0.507984
392 1 0.151978 0.298835 0.512632
1357 1 0.402958 0.318784 0.51218
868 1 0.873594 0.307485 0.525769
829 1 0.38379 0.321865 0.53253
15 1 0.387385 0.342022 0.51343
1156 1 0.302515 0.36244 0.532046
945 1 0.463937 0.39082 0.515756
1188 1 0.218158 0.399369 0.508105
475 1 0.30942 0.424616 0.524303
1244 1 0.56683 0.421084 0.527696
518 1 0.543208 0.434928 0.521551
362 1 0.712079 0.461259 0.535585
192 1 0.729923 0.455396 0.514931
619 1 0.724242 0.436055 0.534436
1387 1 0.128305 0.509057 0.513121
1341 1 0.15085 0.51731 0.52765
808 1 0.356439 0.519367 0.505387
1296 1 0.352096 0.511785 0.532053
464 1 0.375154 0.526209 0.525146
350 1 0.66386 0.501845 0.515584
1278 1 0.200676 0.626312 0.525178
825 1 0.696585 0.619796 0.526356
318 1 0.202023 0.673428 0.52374
474 1 0.215045 0.649319 0.518972
79 1 0.229886 0.67315 0.519568
559 1 0.239905 0.648826 0.530443
369 1 0.257081 0.667067 0.518354
1498 1 0.776385 0.706105 0.509024
855 1 0.196287 0.74813 0.530858
1526 2 0.240786 0.76087 0.519827
1167 1 0.311351 0.753483 0.530934
1322 1 0.515207 0.777554 0.513393
1464 1 0.688994 0.780581 0.505706
543 1 0.689087 0.757886 0.522211
745 1 0.699346 0.782206 0.531737
270 1 0.949471 0.756085 0.527441
561 1 0.79996 0.811884 0.504283
90 1 0.0855494 0.829388 0.522652
410 1 0.791082 0.825471 0.527175
1022 1 0.862768 0.827609 0.506629
421 1 0.960521 0.875687 0.513102
1381 1 0.944913 0.869541 0.535528
1088 1 0.988076 0.870723 0.513722
1420 1 0.971969 0.862326 0.535038
1128 1 0.568805 0.938386 0.515209
511 1 0.582317 0.962074 0.508593
152 1 0.801271 0.95505 0.524418
1253 1 0.0718378 0.991728 0.532461
581 1 0.0940435 0.9746 0.533449
449 1 0.315379 0.999933 0.503742
32 1 0.294309 0.987994 0.517919
1177 1 0.319648 0.990308 0.529753
764 1 0.415497 0.0222764 0.54281
1193 1 0.440638 0.0299099 0.552664
366 1 0.8174 0.0172988 0.547431
1178 1 0.91337 0.00925612 0.567677
1043 1 0.973643 0.0140151 0.551488
847 1 0.351048 0.0670285 0.547314
688 1 0.602987 0.0382145 0.56233
801 1 0.579918 0.0434247 0.547227
748 1 0.0670604 0.083866 0.536695
1073 1 0.697353 0.0858106 0.56751
489 1 0.149393 0.135075 0.546675
1204 1 0.408827 0.122892 0.56124
1288 1 0.741425 0.132597 0.558013
1254 1 0.16572 0.152049 0.561641
437 1 0.146824 0.162933 0.544048
1469 1 0.172064 0.174686 0.546469
777 1 0.191064 0.154681 0.550619
177 1 0.00878105 0.212697 0.567297
1315 1 0.289984 0.196932 0.538669
1219 1 0.583816 0.193048 0.554597
1297 1 0.714126 0.199194 0.569759
941 1 0.840376 0.202568 0.556702
758 1 0.698517 0.222334 0.569251
1511 2 0.971242 0.230069 0.541775
1013 1 0.134886 0.255321 0.556444
1155 1 0.763134 0.268666 0.548468
1169 1 0.405509 0.30457 0.53617
204 1 0.744575 0.289264 0.544677
502 1 0.747277 0.312052 0.560611
716 1 0.759328 0.287976 0.568378
469 1 0.886126 0.317259 0.548896
184 1 0.116105 0.380053 0.550077
1098 1 0.844186 0.377242 0.566276
568 1 0.138299 0.394332 0.540536
1211 1 0.544051 0.417778 0.543746
830 1 0.853998 0.398135 0.550318
183 1 0.0482213 0.455795 0.53996
1140 1 0.739728 0.458485 0.540886
773 1 0.72079 0.448807 0.559114
1337 1 0.89652 0.441236 0.569674
601 1 0.72423 0.476426 0.555627
370 1 0.887256 0.46762 0.567331
455 1 0.251071 0.549268 0.567922
450 1 0.259081 0.576104 0.566156
961 1 0.704576 0.599975 0.544451
702 1 0.194477 0.625919 0.552588
1238 1 0.218913 0.636147 0.543835
879 1 0.682054 0.615646 0.550049
791 1 0.686347 0.641644 0.54057
1453 1 0.707745 0.626986 0.551126
1461 1 0.801777 0.617446 0.5647
1351 1 0.195246 0.650318 0.538447
1282 1 0.2193 0.663574 0.542939
1277 1 0.245428 0.672969 0.543081
1069 1 0.238311 0.650346 0.558194
233 1 0.352744 0.675133 0.570653
1525 2 0.217126 0.710774 0.551795
405 1 0.844749 0.694625 0.558694
165 1 0.192269 0.774126 0.539857
333 1 0.208758 0.75754 0.554882
1427 1 0.181573 0.751786 0.554153
700 1 0.284658 0.753504 0.539607
815 1 0.305506 0.755307 0.558315
1031 1 0.410232 0.771795 0.561075
278 1 0.721298 0.857117 0.563861
133 1 0.864217 0.886472 0.567096
577 1 0.142689 0.0224892 0.592459
46 1 0.131499 0.0472011 0.599639
1475 1 0.159328 0.0445948 0.597144
197 1 0.526512 0.0854156 0.580622
1186 1 0.596306 0.11939 0.595223
1237 1 0.881661 0.119668 0.57808
1026 1 0.893568 0.144397 0.572234
895 1 0.691382 0.200595 0.585886
1120 1 0.0254222 0.221791 0.587982
600 1 0.671669 0.2167 0.574424
213 1 0.71375 0.216316 0.591973
285 1 0.688004 0.226932 0.594802
1512 2 0.979666 0.226685 0.603616
330 1 0.771236 0.263598 0.574826
650 1 0.962506 0.263079 0.576365
1404 1 0.740757 0.300231 0.585142
1126 1 0.613174 0.335212 0.58764
134 1 0.632905 0.354715 0.591856
317 1 0.937832 0.376121 0.598255
1032 1 0.965171 0.382444 0.598427
1302 1 0.659138 0.421969 0.594778
924 1 0.847313 0.402923 0.577147