ITEM: TIMESTEP
0
ITEM: NUMBER OF ATOMS
100
ITEM: BOX BOUNDS pp pp pp
0.0000000000000000e+00 3.0000000000000000e+01
0.0000000000000000e+00 3.0000000000000000e+01
0.0000000000000000e+00 3.0000000000000000e+01
ITEM: ATOMS id type xs ys zs
37 2 0.538162 0.0633478 0.0136082
35 1 0.603855 0.056498 0.00456992
36 1 0.571009 0.0599229 0.00908908
31 1 0.636702 0.0530731 5.0751e-05
38 1 0.655618 0.0402617 0.0243227
39 1 0.674533 0.0274502 0.0485946
40 2 0.693449 0.0146388 0.0728666
92 1 0.460224 0.542464 0.0175332
93 1 0.485476 0.527007 0.0328457
94 2 0.510728 0.511549 0.0481583
91 1 0.434971 0.557922 0.00222059
98 1 0.413293 0.576006 0.0199442
99 1 0.391615 0.594089 0.0376679
100 2 0.369937 0.612172 0.0553915
10 2 0.999943 0.59142 0.0667208
2 1 0.942407 0.54085 0.159329
3 1 0.934224 0.509488 0.167115
4 2 0.926041 0.478127 0.174901
1 1 0.95059 0.572211 0.151544
5 1 0.942323 0.597169 0.172033
8 1 0.967041 0.578614 0.123269
9 1 0.983492 0.585017 0.0949951
49 1 0.797053 0.872916 0.161852
50 2 0.769093 0.854915 0.164153
41 1 0.852973 0.908916 0.15725
45 1 0.879961 0.900088 0.174707
48 1 0.825013 0.890916 0.159551
42 1 0.853944 0.935745 0.137492
43 1 0.854915 0.962574 0.117734
44 2 0.855887 0.989403 0.097976
6 1 0.934055 0.622128 0.192521
7 2 0.925787 0.647086 0.21301
46 1 0.906949 0.891259 0.192164
47 2 0.933938 0.882431 0.209621
70 2 0.201232 0.342503 0.477509
61 1 0.251587 0.428897 0.477383
68 1 0.234802 0.400099 0.477425
69 1 0.218017 0.371301 0.477467
62 1 0.28492 0.428761 0.477436
63 1 0.318253 0.428624 0.477489
64 2 0.351586 0.428487 0.477542
65 1 0.235039 0.457832 0.477288
66 1 0.218491 0.486767 0.477192
67 2 0.201943 0.515701 0.477097
30 2 0.235781 0.520658 0.592751
21 1 0.181389 0.604545 0.594731
25 1 0.151629 0.604761 0.609743
26 1 0.121869 0.604977 0.624754
22 1 0.193018 0.632292 0.580379
28 1 0.19952 0.576583 0.594071
29 1 0.21765 0.54862 0.593411
23 1 0.204648 0.660039 0.566027
24 2 0.216277 0.687786 0.551675
57 2 0.875612 0.68213 0.610631
72 1 0.346001 0.757703 0.629204
73 1 0.317351 0.774487 0.626265
74 2 0.288702 0.791271 0.623326
71 1 0.37465 0.740919 0.632143
78 1 0.402864 0.753849 0.619982
79 1 0.431077 0.766779 0.607822
80 2 0.459291 0.779709 0.595662
88 1 0.446129 0.908984 0.602365
89 1 0.472082 0.907357 0.581511
90 2 0.498034 0.905731 0.560657
86 1 0.36275 0.937706 0.602914
87 2 0.334037 0.951254 0.592762
81 1 0.420177 0.91061 0.623219
85 1 0.391463 0.924158 0.613066
16 1 0.979491 0.173502 0.694745
17 2 0.970688 0.145963 0.678156
18 1 0.00207488 0.257105 0.711412
15 1 0.988295 0.20104 0.711333
19 1 0.00705162 0.285631 0.694903
20 2 0.0120284 0.314157 0.678393
27 2 0.092109 0.605192 0.639766
75 1 0.375085 0.711206 0.647241
76 1 0.375521 0.681492 0.66234
77 2 0.375956 0.651779 0.677439
51 1 0.901928 0.702904 0.70484
55 1 0.893156 0.695979 0.673437
56 1 0.884384 0.689054 0.642034
58 1 0.92372 0.683338 0.720757
52 1 0.888908 0.729395 0.720327
82 1 0.422938 0.898689 0.654225
83 1 0.425698 0.886767 0.685231
84 2 0.428459 0.874846 0.716237
12 1 0.000924938 0.227592 0.76102
13 1 0.00475173 0.226605 0.794118
11 1 0.997098 0.228579 0.727922
59 1 0.945512 0.663772 0.736674
60 2 0.967304 0.644206 0.752591
53 1 0.875888 0.755885 0.735813
54 2 0.862868 0.782376 0.7513
14 2 0.00857852 0.225617 0.827216
97 2 0.424247 0.550047 0.903112
32 1 0.650633 0.0624597 0.97126
33 1 0.664564 0.0718463 0.942469
34 2 0.678495 0.0812328 0.913677
95 1 0.431396 0.555297 0.969184
96 1 0.427822 0.552672 0.936148
ITEM: TIMESTEP
1
ITEM: NUMBER OF ATOMS
100
ITEM: BOX BOUNDS pp pp pp
0.0000000000000000e+00 3.0000000000000000e+01
0.0000000000000000e+00 3.0000000000000000e+01
0.0000000000000000e+00 3.0000000000000000e+01
ITEM: ATOMS id type xs ys zs
37 2 0.541446 0.0630053 0.0131563
35 1 0.603855 0.0564981 0.00456965
36 1 0.568022 0.0602343 0.00949993
31 1 0.636702 0.053073 5.10447e-05
38 1 0.655618 0.0402617 0.0243225
39 1 0.676253 0.0262855 0.0508012
40 2 0.691558 0.0159199 0.0704394
92 1 0.460224 0.542464 0.0175332
93 1 0.487772 0.525601 0.0342378
94 2 0.508203 0.513094 0.0466271
91 1 0.434971 0.557923 0.00222044
98 1 0.413293 0.576006 0.0199445
99 1 0.389644 0.595733 0.0392792
100 2 0.372105 0.610364 0.0536192
10 2 0.998297 0.59078 0.0695482
2 1 0.942407 0.54085 0.159329
3 1 0.93348 0.506637 0.167823
4 2 0.926859 0.481263 0.174122
1 1 0.95059 0.572211 0.151544
5 1 0.942323 0.597169 0.172033
8 1 0.967041 0.578614 0.123269
9 1 0.984987 0.585599 0.0924247
49 1 0.794511 0.871279 0.162062
50 2 0.771889 0.856715 0.163923
41 1 0.852972 0.908916 0.15725
45 1 0.879961 0.900088 0.174707
48 1 0.825012 0.890916 0.159551
42 1 0.853944 0.935745 0.137492
43 1 0.855004 0.965013 0.115938
44 2 0.85579 0.98672 0.0999518
6 1 0.933303 0.624397 0.194384
7 2 0.926614 0.64459 0.210961
46 1 0.909403 0.890457 0.193751
47 2 0.931239 0.883313 0.207875
70 2 0.202911 0.345383 0.477505
61 1 0.251587 0.428897 0.477383
68 1 0.234803 0.400099 0.477425
69 1 0.216491 0.368683 0.477471
62 1 0.28492 0.428761 0.477436
63 1 0.321284 0.428612 0.477494
64 2 0.348253 0.428501 0.477537
65 1 0.23504 0.457832 0.477288
66 1 0.216987 0.489397 0.477184
67 2 0.203598 0.512808 0.477107
30 2 0.233968 0.523454 0.592817
21 1 0.181389 0.604545 0.594731
25 1 0.151629 0.604761 0.609742
26 1 0.119163 0.604996 0.626119
22 1 0.193018 0.632292 0.580379
28 1 0.19952 0.576583 0.59407
29 1 0.219299 0.546078 0.593351
23 1 0.205705 0.662562 0.564722
24 2 0.215114 0.685012 0.55311
57 2 0.87649 0.682822 0.613771
72 1 0.346001 0.757703 0.629204
73 1 0.314747 0.776013 0.625998
74 2 0.291567 0.789592 0.62362
71 1 0.37465 0.740919 0.632143
78 1 0.402863 0.753849 0.619982
79 1 0.433642 0.767954 0.606717
80 2 0.45647 0.778416 0.596878
88 1 0.446129 0.908983 0.602365
89 1 0.474441 0.907209 0.579615
90 2 0.495439 0.905893 0.562742
86 1 0.36014 0.938937 0.601991
87 2 0.336908 0.949899 0.593777
81 1 0.420177 0.91061 0.623218
85 1 0.391463 0.924158 0.613067
16 1 0.978691 0.170998 0.693236
17 2 0.971568 0.148717 0.679815
18 1 0.00207495 0.257105 0.711412
15 1 0.988295 0.20104 0.711333
19 1 0.00750406 0.288224 0.693402
20 2 0.0115307 0.311304 0.680044
27 2 0.095085 0.605171 0.638265
75 1 0.375085 0.711206 0.647242
76 1 0.375561 0.678791 0.663713
77 2 0.375913 0.65475 0.675929
51 1 0.901928 0.702904 0.70484
55 1 0.893156 0.695979 0.673437
56 1 0.883587 0.688425 0.639179
58 1 0.92372 0.683338 0.720757
52 1 0.888908 0.729395 0.720327
82 1 0.422938 0.898689 0.654225
83 1 0.425949 0.885684 0.688049
84 2 0.428183 0.876038 0.713136
12 1 0.000924938 0.227592 0.76102
13 1 0.00509962 0.226515 0.797127
11 1 0.997098 0.228579 0.727921
59 1 0.947493 0.661993 0.738121
60 2 0.965125 0.646162 0.750999
53 1 0.874704 0.758294 0.737221
54 2 0.86417 0.779727 0.749751
14 2 0.00819584 0.225716 0.823907
97 2 0.424605 0.550309 0.906415
32 1 0.650633 0.0624597 0.97126
33 1 0.665831 0.0726996 0.939851
34 2 0.677102 0.0802942 0.916557
95 1 0.431397 0.555297 0.969184
96 1 0.427497 0.552433 0.933145
ITEM: TIMESTEP
2
ITEM: NUMBER OF ATOMS
100
ITEM: BOX BOUNDS pp pp pp
0.0000000000000000e+00 3.0000000000000000e+01
0.0000000000000000e+00 3.0000000000000000e+01
0.0000000000000000e+00 3.0000000000000000e+01
ITEM: ATOMS id type xs ys zs
37 2 0.544731 0.0626628 0.0127044
35 1 0.602656 0.056623 0.00473482
36 1 0.566464 0.0603968 0.00971433
31 1 0.636702 0.0530733 5.03089e-05
38 1 0.656308 0.0397941 0.0252086
39 1 0.677151 0.0256776 0.0519529
40 2 0.689666 0.017201 0.0680123
92 1 0.461145 0.5419 0.018092
93 1 0.48897 0.524868 0.0349643
94 2 0.505678 0.51464 0.0450958
91 1 0.434971 0.557922 0.00222083
98 1 0.412502 0.576666 0.0205912
99 1 0.388616 0.596591 0.0401202
100 2 0.374273 0.608556 0.0518469
10 2 0.996652 0.590139 0.0723755
2 1 0.942109 0.539705 0.159614
3 1 0.933092 0.505149 0.168192
4 2 0.927678 0.484399 0.173344
1 1 0.95059 0.572211 0.151544
5 1 0.942021 0.59808 0.17278
8 1 0.967642 0.578848 0.122237
9 1 0.985768 0.585903 0.0910831
49 1 0.793184 0.870425 0.162171
50 2 0.774685 0.858515 0.163693
41 1 0.852973 0.908917 0.15725
45 1 0.880946 0.899766 0.175344
48 1 0.823992 0.890259 0.159635
42 1 0.853979 0.936724 0.136771
43 1 0.85505 0.966286 0.115
44 2 0.855693 0.984037 0.101928
6 1 0.932911 0.625581 0.195356
7 2 0.927441 0.642095 0.208912
46 1 0.910683 0.890038 0.194579
47 2 0.92854 0.884196 0.20613
70 2 0.204589 0.348263 0.477501
61 1 0.251588 0.428897 0.477383
68 1 0.23419 0.399048 0.477427
69 1 0.215695 0.367317 0.477473
62 1 0.286137 0.428756 0.477438
63 1 0.322865 0.428605 0.477497
64 2 0.34492 0.428515 0.477532
65 1 0.234435 0.458888 0.477284
66 1 0.216202 0.49077 0.477179
67 2 0.205253 0.509915 0.477116
30 2 0.232155 0.52625 0.592883
21 1 0.181389 0.604546 0.59473
25 1 0.150543 0.604769 0.61029
26 1 0.117751 0.605006 0.626832
22 1 0.193443 0.633305 0.579855
28 1 0.200182 0.575562 0.594046
29 1 0.220159 0.544751 0.593319
23 1 0.206256 0.663878 0.564041
24 2 0.213951 0.682237 0.554545
57 2 0.877367 0.683515 0.616911
72 1 0.344955 0.758316 0.629097
73 1 0.313388 0.776809 0.625858
74 2 0.294432 0.787914 0.623914
71 1 0.374649 0.74092 0.632143
78 1 0.403893 0.754321 0.619539
79 1 0.434981 0.768568 0.60614
80 2 0.453648 0.777123 0.598094
88 1 0.447077 0.908924 0.601604
89 1 0.475673 0.907132 0.578626
90 2 0.492844 0.906056 0.564828
86 1 0.358777 0.93958 0.60151
87 2 0.339779 0.948544 0.594793
81 1 0.420177 0.91061 0.623219
85 1 0.390415 0.924652 0.612696
16 1 0.978273 0.169691 0.692449
17 2 0.972448 0.151471 0.681474
18 1 0.00225655 0.258146 0.71081
15 1 0.987973 0.200035 0.710728
19 1 0.0077402 0.289578 0.692618
20 2 0.011033 0.308452 0.681695
27 2 0.0980608 0.605149 0.636764
75 1 0.375101 0.710121 0.647793
76 1 0.375581 0.677381 0.664429
77 2 0.375869 0.657721 0.67442
51 1 0.901928 0.702904 0.704841
55 1 0.892836 0.695726 0.672291
56 1 0.883171 0.688096 0.637689
58 1 0.924515 0.682624 0.721338
52 1 0.888433 0.730361 0.720892
82 1 0.423038 0.898254 0.655356
83 1 0.42608 0.885118 0.68952
84 2 0.427907 0.87723 0.710035
12 1 0.00106459 0.227556 0.762228
13 1 0.00528118 0.226468 0.798698
11 1 0.997098 0.228579 0.727922
59 1 0.948527 0.661065 0.738876
60 2 0.962945 0.648119 0.749408
53 1 0.874086 0.75955 0.737956
54 2 0.865472 0.777078 0.748202
14 2 0.00781315 0.225815 0.820597
97 2 0.424962 0.550572 0.909719
32 1 0.651142 0.0628022 0.970209
33 1 0.666492 0.0731449 0.938485
34 2 0.675709 0.0793555 0.919436
95 1 0.431266 0.555201 0.967979
96 1 0.427327 0.552309 0.931577
ITEM: TIMESTEP
3
ITEM: NUMBER OF ATOMS
100
ITEM: BOX BOUNDS pp pp pp
0.0000000000000000e+00 3.0000000000000000e+01
0.0000000000000000e+00 3.0000000000000000e+01
0.0000000000000000e+00 3.0000000000000000e+01
ITEM: ATOMS id type xs ys zs
37 2 0.547552 0.0623687 0.0123163
35 1 0.600842 0.056813 0.0049826
36 1 0.56758 0.0602804 0.00956078
31 1 0.636701 0.0530722 5.34804e-05
38 1 0.657355 0.0390867 0.026548
39 1 0.676508 0.026113 0.0511281
40 2 0.688041 0.0183014 0.0659275
92 1 0.46254 0.541046 0.0189381
93 1 0.488111 0.525393 0.0344438
94 2 0.503509 0.515968 0.0437804
91 1 0.434969 0.557924 0.00221914
98 1 0.411306 0.577664 0.0215718
99 1 0.389353 0.595976 0.0395179
100 2 0.376135 0.607002 0.0503246
10 2 0.995239 0.589589 0.0748041
2 1 0.941656 0.537972 0.160044
3 1 0.93337 0.506215 0.167928
4 2 0.928381 0.487093 0.172675
1 1 0.950591 0.572214 0.151543
5 1 0.941563 0.599458 0.173913
8 1 0.96855 0.579199 0.120675
9 1 0.985209 0.585685 0.0920438
49 1 0.794134 0.871037 0.162092
50 2 0.777086 0.860062 0.163496
41 1 0.852972 0.908914 0.157252
45 1 0.882438 0.89928 0.176308
48 1 0.822447 0.889266 0.159761
42 1 0.854033 0.938207 0.135679
43 1 0.855017 0.965374 0.115672
44 2 0.855609 0.981732 0.103625
6 1 0.933192 0.624733 0.19466
7 2 0.928151 0.639951 0.207153
46 1 0.909766 0.890338 0.193986
47 2 0.926222 0.884955 0.20463
70 2 0.206031 0.350736 0.477497
61 1 0.251584 0.428897 0.477383
68 1 0.233264 0.397457 0.477429
69 1 0.216265 0.368295 0.477472
62 1 0.287979 0.428748 0.477441
63 1 0.321732 0.42861 0.477495
64 2 0.342056 0.428526 0.477527
65 1 0.233523 0.460487 0.477279
66 1 0.216764 0.489787 0.477182
67 2 0.206674 0.507429 0.477124
30 2 0.230598 0.528652 0.592939
21 1 0.181388 0.604543 0.594732
25 1 0.148899 0.604783 0.611119
26 1 0.118763 0.604999 0.626321
22 1 0.194085 0.634838 0.579062
28 1 0.201184 0.574019 0.594009
29 1 0.219543 0.545702 0.593342
23 1 0.205861 0.662935 0.564529
24 2 0.212952 0.679853 0.555778
57 2 0.87812 0.684109 0.619608
72 1 0.343372 0.759243 0.628934
73 1 0.314361 0.776239 0.625958
74 2 0.296893 0.786472 0.624166
71 1 0.374653 0.740918 0.632143
78 1 0.405451 0.755037 0.618866
79 1 0.434022 0.768129 0.606553
80 2 0.451225 0.776012 0.599139
88 1 0.448511 0.908833 0.600453
89 1 0.474791 0.907187 0.579334
90 2 0.490615 0.906196 0.566619
86 1 0.359753 0.93912 0.601855
87 2 0.342246 0.94738 0.595665
81 1 0.420176 0.910611 0.623216
85 1 0.388829 0.9254 0.612137
16 1 0.978572 0.170627 0.693013
17 2 0.973204 0.153836 0.682898
18 1 0.00253185 0.259723 0.709899
15 1 0.987487 0.198513 0.709813
19 1 0.0075711 0.288608 0.693179
20 2 0.0106056 0.306002 0.683113
27 2 0.100617 0.605131 0.635475
75 1 0.375123 0.70848 0.648627
76 1 0.375566 0.678391 0.663916
77 2 0.375832 0.660273 0.673123
51 1 0.901929 0.702901 0.704839
55 1 0.89235 0.695346 0.670556
56 1 0.883469 0.688332 0.638756
58 1 0.925719 0.681544 0.722219
52 1 0.887713 0.731825 0.721748
82 1 0.423191 0.897595 0.657069
83 1 0.425986 0.885523 0.688466
84 2 0.42767 0.878254 0.707372
12 1 0.00127605 0.227501 0.764057
13 1 0.00515111 0.226501 0.797573
11 1 0.997098 0.228579 0.727919
59 1 0.947786 0.66173 0.738335
60 2 0.961074 0.649799 0.74804
53 1 0.874529 0.75865 0.737429
54 2 0.86659 0.774802 0.746872
14 2 0.00748442 0.2259 0.817754
97 2 0.425269 0.550797 0.912557
32 1 0.651911 0.0633209 0.968618
33 1 0.666018 0.0728259 0.939464
34 2 0.674513 0.0785492 0.921909
95 1 0.43107 0.555055 0.966154
96 1 0.427449 0.552398 0.9327
ITEM: TIMESTEP
4
ITEM: NUMBER OF ATOMS
100
ITEM: BOX BOUNDS pp pp pp
0.0000000000000000e+00 3.0000000000000000e+01
0.0000000000000000e+00 3.0000000000000000e+01
0.0000000000000000e+00 3.0000000000000000e+01
ITEM: ATOMS id type xs ys zs
37 2 0.550837 0.0620262 0.0118644
35 1 0.602221 0.0566647 0.0048041
36 1 0.568352 0.0602003 0.00945337
31 1 0.636711 0.0530791 3.24339e-05
38 1 0.656551 0.0396228 0.0255369
39 1 0.676064 0.0264143 0.0505567
40 2 0.68615 0.0195824 0.0635007
92 1 0.461477 0.541697 0.0182932
93 1 0.487518 0.525756 0.0340841
94 2 0.500983 0.517514 0.0422491
91 1 0.434987 0.557913 0.00223034
98 1 0.412209 0.576908 0.0208183
99 1 0.389863 0.595551 0.0391022
100 2 0.378302 0.605194 0.0485525
10 2 0.993595 0.588949 0.0776311
2 1 0.942001 0.539293 0.159716
3 1 0.933562 0.506952 0.167745
4 2 0.929199 0.49023 0.171896
1 1 0.950585 0.572191 0.151549
5 1 0.941915 0.598419 0.173046
8 1 0.96786 0.578943 0.121864
9 1 0.984822 0.585534 0.0927084
49 1 0.794791 0.871461 0.162038
50 2 0.779882 0.861861 0.163265
41 1 0.852973 0.908933 0.157237
45 1 0.8813 0.89964 0.17558
48 1 0.823625 0.890014 0.159672
42 1 0.853992 0.937077 0.136511
43 1 0.854994 0.964744 0.116136
44 2 0.855512 0.97905 0.105601
6 1 0.933386 0.624145 0.194179
7 2 0.928978 0.637455 0.205104
46 1 0.909132 0.890546 0.193575
47 2 0.923524 0.885837 0.202885
70 2 0.207709 0.353616 0.477493
61 1 0.251609 0.428897 0.477383
68 1 0.233958 0.398671 0.477427
69 1 0.216661 0.368972 0.477471
62 1 0.286575 0.428754 0.477439
63 1 0.320949 0.428613 0.477493
64 2 0.338723 0.42854 0.477522
65 1 0.234207 0.459268 0.477283
66 1 0.217154 0.489107 0.477185
67 2 0.208329 0.504536 0.477134
30 2 0.228785 0.531448 0.593005
21 1 0.181396 0.604563 0.594721
25 1 0.150148 0.604762 0.610492
26 1 0.119462 0.604995 0.625968
22 1 0.193595 0.63367 0.579666
28 1 0.200415 0.575186 0.594043
29 1 0.219117 0.54636 0.593357
23 1 0.205588 0.662283 0.564866
24 2 0.211789 0.677079 0.557213
57 2 0.878997 0.684802 0.622748
72 1 0.344579 0.758536 0.629058
73 1 0.315035 0.775844 0.626027
74 2 0.299758 0.784794 0.62446
71 1 0.374632 0.74093 0.632141
78 1 0.404273 0.754485 0.61938
79 1 0.433358 0.767826 0.606839
80 2 0.448404 0.774719 0.600354
88 1 0.447416 0.908907 0.601319
89 1 0.474181 0.907225 0.579825
90 2 0.48802 0.906358 0.568704
86 1 0.360428 0.938801 0.602095
87 2 0.345117 0.946026 0.59668
81 1 0.420179 0.910602 0.623238
85 1 0.390038 0.924834 0.612552
16 1 0.978779 0.171274 0.693404
17 2 0.974085 0.156589 0.684557
18 1 0.00232048 0.258521 0.710582
15 1 0.987857 0.199674 0.710499
19 1 0.00745434 0.287938 0.693569
20 2 0.010108 0.303149 0.684764
27 2 0.103593 0.605109 0.633974
75 1 0.375117 0.709726 0.647992
76 1 0.375555 0.67909 0.663562
77 2 0.375788 0.663244 0.671613
51 1 0.90192 0.702921 0.70485
55 1 0.892725 0.695626 0.671874
56 1 0.883674 0.688495 0.639494
58 1 0.924806 0.682358 0.721542
52 1 0.888262 0.730709 0.721095
82 1 0.423075 0.898097 0.655764
83 1 0.425922 0.885803 0.687738
84 2 0.427394 0.879447 0.704271
12 1 0.00111488 0.227543 0.762663
13 1 0.0050612 0.226525 0.796795
11 1 0.997101 0.228578 0.727943
59 1 0.947274 0.66219 0.737962
60 2 0.958895 0.651756 0.746449
53 1 0.874835 0.758028 0.737066
54 2 0.867892 0.772153 0.745323
14 2 0.00710174 0.225998 0.814444
97 2 0.425627 0.55106 0.91586
32 1 0.651325 0.0629256 0.969831
33 1 0.665691 0.0726053 0.94014
34 2 0.673119 0.0776105 0.924788
95 1 0.43121 0.555172 0.96754
96 1 0.427534 0.552459 0.933477
ITEM: TIMESTEP
5
ITEM: NUMBER OF ATOMS
100
ITEM: BOX BOUNDS pp pp pp
0.0000000000000000e+00 3.0000000000000000e+01
0.0000000000000000e+00 3.0000000000000000e+01
0.0000000000000000e+00 3.0000000000000000e+01
ITEM: ATOMS id type xs ys zs
37 2 0.553319 0.0617674 0.011523
35 1 0.604036 0.0565168 0.00445178
36 1 0.571635 0.0598474 0.00902816
31 1 0.636642 0.0530327 0.00017462
38 1 0.65559 0.0403459 0.024125
39 1 0.674152 0.0276908 0.0481492
40 2 0.684721 0.0205505 0.0616666
92 1 0.460095 0.542543 0.0174552
93 1 0.484993 0.527302 0.0325528
94 2 0.499075 0.518682 0.041092
91 1 0.434862 0.557989 0.00215471
98 1 0.413468 0.575879 0.019926
99 1 0.392013 0.593751 0.0373086
100 2 0.37994 0.603828 0.0472131
10 2 0.992352 0.588465 0.0797677
2 1 0.942449 0.541009 0.15929
3 1 0.934381 0.510088 0.166966
4 2 0.929817 0.492599 0.171308
1 1 0.950626 0.572346 0.15151
5 1 0.942328 0.59696 0.171977
8 1 0.966946 0.578479 0.12341
9 1 0.983179 0.584922 0.0955381
49 1 0.797596 0.873241 0.161826
50 2 0.781995 0.863222 0.163092
41 1 0.852968 0.908801 0.157335
45 1 0.879856 0.900216 0.174568
48 1 0.825129 0.891082 0.159473
42 1 0.853939 0.935609 0.137593
43 1 0.854897 0.962061 0.118112
44 2 0.855439 0.977022 0.107094
6 1 0.934224 0.621671 0.192115
7 2 0.929602 0.635569 0.203556
46 1 0.906423 0.891406 0.191843
47 2 0.921484 0.886504 0.201566
70 2 0.208978 0.355792 0.47749
61 1 0.251444 0.428898 0.477383
68 1 0.234986 0.400215 0.477425
69 1 0.218313 0.371862 0.477466
62 1 0.284751 0.428761 0.477436
63 1 0.317616 0.428627 0.477488
64 2 0.336204 0.42855 0.477518
65 1 0.235222 0.457715 0.477288
66 1 0.218782 0.486204 0.477194
67 2 0.209579 0.50235 0.477141
30 2 0.227415 0.533561 0.593055
21 1 0.181339 0.604426 0.594792
25 1 0.151789 0.604856 0.609632
26 1 0.122437 0.604946 0.624476
22 1 0.192959 0.632151 0.580452
28 1 0.199487 0.576792 0.594023
29 1 0.217287 0.549139 0.593437
23 1 0.204425 0.659508 0.566301
24 2 0.21091 0.674982 0.558298
57 2 0.87966 0.685325 0.625121
72 1 0.346146 0.757618 0.629219
73 1 0.3179 0.774166 0.626321
74 2 0.301923 0.783526 0.624682
71 1 0.374773 0.740847 0.632155
78 1 0.402651 0.753855 0.620021
79 1 0.430555 0.766512 0.608062
80 2 0.446272 0.773742 0.601273
88 1 0.446034 0.908949 0.602556
89 1 0.471574 0.9074 0.581888
90 2 0.486059 0.906481 0.57028
86 1 0.363306 0.937453 0.603083
87 2 0.347286 0.945002 0.597447
81 1 0.420165 0.910661 0.623085
85 1 0.391589 0.924062 0.613215
16 1 0.979659 0.174039 0.695036
17 2 0.97475 0.158671 0.68581
18 1 0.00206811 0.256987 0.711594
15 1 0.988343 0.201148 0.711515
19 1 0.00695116 0.285077 0.695193
20 2 0.00973188 0.300994 0.686011
27 2 0.105841 0.605093 0.632839
75 1 0.374984 0.711384 0.64717
76 1 0.375539 0.682055 0.662049
77 2 0.375756 0.66549 0.670472
51 1 0.901984 0.70279 0.704774
55 1 0.893146 0.696099 0.673617
56 1 0.884567 0.689164 0.64263
58 1 0.923587 0.683509 0.720747
52 1 0.888974 0.72926 0.720248
82 1 0.422923 0.898749 0.654067
83 1 0.425645 0.886995 0.684637
84 2 0.427185 0.880347 0.701928
12 1 0.00090546 0.227597 0.760852
13 1 0.00467852 0.226623 0.793485
11 1 0.997082 0.228583 0.727779
59 1 0.9451 0.664128 0.73635
60 2 0.957248 0.653234 0.745246
53 1 0.876137 0.755378 0.735517
54 2 0.868876 0.770151 0.744153
14 2 0.00681257 0.226073 0.811943
97 2 0.425897 0.551258 0.918356
32 1 0.650562 0.0624119 0.971406
33 1 0.664298 0.0716667 0.943019
34 2 0.672067 0.0769012 0.926964
95 1 0.431498 0.555254 0.969371
96 1 0.427868 0.552737 0.936777
ITEM: TIMESTEP
6
ITEM: NUMBER OF ATOMS
100
ITEM: BOX BOUNDS pp pp pp
0.0000000000000000e+00 3.0000000000000000e+01
0.0000000000000000e+00 3.0000000000000000e+01
0.0000000000000000e+00 3.0000000000000000e+01
ITEM: ATOMS id type xs ys zs
37 2 0.553324 0.0617668 0.0115222
35 1 0.604056 0.0564912 0.00450739
36 1 0.571689 0.0598479 0.00900572
31 1 0.63668 0.0530585 1.0001
38 1 0.655531 0.0403451 0.0241504
39 1 0.674133 0.027714 0.0480991
40 2 0.684717 0.0205527 0.0616623
92 1 0.460075 0.542556 0.017443
93 1 0.484951 0.527328 0.0325276
94 2 0.499071 0.518685 0.0410892
91 1 0.434932 0.557947 0.00219672
98 1 0.413446 0.575885 0.0198657
99 1 0.392058 0.593717 0.0372922
100 2 0.379944 0.603825 0.04721
10 2 0.992349 0.588464 0.0797727
2 1 0.942455 0.541034 0.159284
3 1 0.934394 0.51014 0.166953
4 2 0.929819 0.492605 0.171306
1 1 0.950603 0.57226 0.151532
5 1 0.942358 0.59699 0.171929
8 1 0.966939 0.578538 0.123437
9 1 0.983152 0.584895 0.0955822
49 1 0.797636 0.873281 0.161812
50 2 0.782 0.863225 0.163091
41 1 0.852971 0.908875 0.157281
45 1 0.879812 0.900172 0.174584
48 1 0.825169 0.891051 0.159513
42 1 0.853938 0.935587 0.137608
43 1 0.854895 0.962017 0.118144
44 2 0.855438 0.977017 0.107097
6 1 0.934231 0.621619 0.192091
7 2 0.929604 0.635565 0.203552
46 1 0.906386 0.891433 0.191807
47 2 0.921479 0.886506 0.201562
70 2 0.208981 0.355797 0.47749
61 1 0.251535 0.428898 0.477383
68 1 0.234939 0.400259 0.477425
69 1 0.218355 0.371902 0.477466
62 1 0.284724 0.428761 0.477436
63 1 0.317561 0.428627 0.477488
64 2 0.336198 0.42855 0.477518
65 1 0.235175 0.457671 0.477288
66 1 0.218824 0.486163 0.477194
67 2 0.209582 0.502345 0.477141
30 2 0.227412 0.533566 0.593055
21 1 0.181371 0.604502 0.594753
25 1 0.151809 0.604796 0.60964
26 1 0.122486 0.604962 0.624447
22 1 0.19295 0.632129 0.580463
28 1 0.199434 0.576774 0.594056
29 1 0.217268 0.549193 0.59343
23 1 0.204406 0.659463 0.566325
24 2 0.210908 0.674977 0.5583
57 2 0.879662 0.685326 0.625127
72 1 0.346169 0.757604 0.629221
73 1 0.317947 0.774138 0.626326
74 2 0.301928 0.783522 0.624683
71 1 0.374695 0.740893 0.632147
78 1 0.40267 0.753799 0.620046
79 1 0.4305 0.766503 0.608077
80 2 0.446267 0.77374 0.601276
88 1 0.445989 0.908977 0.602521
89 1 0.471539 0.907396 0.581934
90 2 0.486054 0.906481 0.570283
86 1 0.363348 0.937428 0.603114
87 2 0.347291 0.945 0.597449
81 1 0.420172 0.910629 0.62317
85 1 0.391627 0.924067 0.613163
16 1 0.979673 0.174077 0.695078
17 2 0.974751 0.158675 0.685813
18 1 0.00205221 0.256945 0.711547
15 1 0.988349 0.201192 0.711468
19 1 0.00694631 0.285036 0.695235
20 2 0.009731 0.300989 0.686014
27 2 0.105847 0.605093 0.632837
75 1 0.375046 0.711393 0.647154
76 1 0.375523 0.682106 0.662026
77 2 0.375755 0.665495 0.670469
51 1 0.901948 0.702863 0.704816
55 1 0.893188 0.696052 0.673632
56 1 0.884572 0.689189 0.642683
58 1 0.923582 0.683481 0.720689
52 1 0.888985 0.729239 0.720236
82 1 0.422921 0.898759 0.654042
83 1 0.425641 0.887015 0.684586
84 2 0.427185 0.88035 0.701923
12 1 0.000902398 0.227598 0.760825
13 1 0.00467222 0.226625 0.793431
11 1 0.997092 0.228581 0.72787
59 1 0.945062 0.66417 0.736336
60 2 0.957244 0.653238 0.745243
53 1 0.876158 0.755335 0.735491
54 2 0.868878 0.770146 0.74415
14 2 0.00681187 0.226073 0.811937
97 2 0.425897 0.551258 0.918362
32 1 0.650551 0.0624044 0.971429
33 1 0.664275 0.0716512 0.943067
34 2 0.672064 0.0768995 0.926969
95 1 0.431449 0.555292 0.969388
96 1 0.427887 0.552732 0.936832
ITEM: TIMESTEP
7
ITEM: NUMBER OF ATOMS
100
ITEM: BOX BOUNDS pp pp pp
0.0000000000000000e+00 3.0000000000000000e+01
0.0000000000000000e+00 3.0000000000000000e+01
0.0000000000000000e+00 3.0000000000000000e+01
ITEM: ATOMS id type xs ys zs
37 2 0.55332 0.0617673 0.0115228
35 1 0.6041 0.0564571 0.00457465
36 1 0.571818 0.0598421 0.00896886
31 1 0.636728 0.0530907 0.999997
38 1 0.655446 0.0403514 0.0241685
39 1 0.674074 0.0277673 0.0479903
40 2 0.68472 0.0205509 0.0616658
92 1 0.460035 0.54258 0.0174186
93 1 0.484852 0.527388 0.0324675
94 2 0.499074 0.518683 0.0410913
91 1 0.435018 0.557893 0.00224933
98 1 0.413432 0.575882 0.0197798
99 1 0.392155 0.593641 0.0372386
100 2 0.379941 0.603827 0.0472125
10 2 0.992351 0.588465 0.0797686
2 1 0.942469 0.541084 0.159271
3 1 0.934426 0.510263 0.166923
4 2 0.929818 0.492601 0.171307
1 1 0.950575 0.572152 0.151558
5 1 0.942401 0.597013 0.171857
8 1 0.96692 0.578607 0.123486
9 1 0.983086 0.58485 0.0956907
49 1 0.797738 0.873366 0.161789
50 2 0.781996 0.863222 0.163092
41 1 0.852974 0.908967 0.157213
45 1 0.879742 0.900121 0.174595
48 1 0.825236 0.891023 0.159561
42 1 0.853937 0.935544 0.13764
43 1 0.854891 0.961911 0.118222
44 2 0.855439 0.977021 0.107095
6 1 0.934255 0.621506 0.192022
7 2 0.929603 0.635569 0.203555
46 1 0.906288 0.891484 0.19173
47 2 0.921483 0.886505 0.201565
70 2 0.208978 0.355793 0.47749
61 1 0.25165 0.428897 0.477383
68 1 0.23489 0.400331 0.477425
69 1 0.21844 0.372007 0.477466
62 1 0.284671 0.428762 0.477436
63 1 0.31743 0.428627 0.477488
64 2 0.336203 0.42855 0.477518
65 1 0.235125 0.457599 0.477288
66 1 0.218908 0.486057 0.477195
67 2 0.20958 0.502349 0.477141
30 2 0.227414 0.533562 0.593055
21 1 0.181411 0.604597 0.594704
25 1 0.151852 0.60472 0.609642
26 1 0.122602 0.60498 0.624382
22 1 0.192931 0.632085 0.580486
28 1 0.199357 0.576768 0.594096
29 1 0.21721 0.549315 0.593422
23 1 0.20436 0.659354 0.566381
24 2 0.21091 0.67498 0.558298
57 2 0.87966 0.685325 0.625122
72 1 0.346215 0.757578 0.629226
73 1 0.318059 0.774072 0.626338
74 2 0.301924 0.783525 0.624683
71 1 0.374596 0.740951 0.632137
78 1 0.402677 0.753721 0.620084
79 1 0.430376 0.766468 0.608119
80 2 0.446271 0.773742 0.601274
88 1 0.445916 0.909014 0.602488
89 1 0.471447 0.907393 0.582032
90 2 0.486058 0.906481 0.57028
86 1 0.363455 0.93737 0.603173
87 2 0.347287 0.945002 0.597447
81 1 0.420182 0.910588 0.623277
85 1 0.391691 0.924066 0.613104
16 1 0.979708 0.174176 0.695162
17 2 0.97475 0.158671 0.685811
18 1 0.00202937 0.256877 0.711498
15 1 0.98836 0.201263 0.711419
19 1 0.00693091 0.284931 0.695318
20 2 0.00973172 0.300993 0.686012
27 2 0.105842 0.605093 0.632839
75 1 0.375123 0.711421 0.647124
76 1 0.375501 0.682226 0.661969
77 2 0.375756 0.665491 0.670472
51 1 0.901904 0.702954 0.704869
55 1 0.893245 0.695997 0.673668
56 1 0.884595 0.689233 0.642809
58 1 0.923563 0.683457 0.720607
52 1 0.889005 0.729196 0.720211
82 1 0.422917 0.898778 0.653993
83 1 0.42563 0.887062 0.684465
84 2 0.427185 0.880348 0.701927
12 1 0.000896298 0.227599 0.760772
13 1 0.0046572 0.226629 0.793301
11 1 0.997105 0.228577 0.727984
59 1 0.944973 0.66426 0.736289
60 2 0.957247 0.653235 0.745246
53 1 0.876209 0.755231 0.735431
54 2 0.868877 0.77015 0.744152
14 2 0.00681238 0.226073 0.811941
97 2 0.425897 0.551258 0.918357
32 1 0.650529 0.0623894 0.971475
33 1 0.66422 0.0716144 0.94318
34 2 0.672066 0.0769007 0.926965
95 1 0.431389 0.55534 0.969428
96 1 0.427918 0.552731 0.936963
ITEM: TIMESTEP
8
ITEM: NUMBER OF ATOMS
100
ITEM: BOX BOUNDS pp pp pp
0.0000000000000000e+00 3.0000000000000000e+01
0.0000000000000000e+00 3.0000000000000000e+01
0.0000000000000000e+00 3.0000000000000000e+01
ITEM: ATOMS id type xs ys zs
37 2 0.553354 0.0617637 0.0115181
35 1 0.604304 0.0564735 0.00445313
36 1 0.572317 0.0597807 0.00892341
31 1 0.636667 0.0530497 1.00012
38 1 0.655405 0.0404447 0.0239534
39 1 0.673768 0.0279583 0.0476378
40 2 0.6847 0.0205642 0.0616405
92 1 0.459881 0.542674 0.0173256
93 1 0.484472 0.527621 0.0322371
94 2 0.499047 0.518699 0.0410751
91 1 0.434908 0.557961 0.0021823
98 1 0.413622 0.575743 0.019749
99 1 0.39247 0.593373 0.0369499
100 2 0.379964 0.603808 0.0471941
10 2 0.992334 0.588458 0.079798
2 1 0.942518 0.541275 0.159224
3 1 0.934549 0.510735 0.166806
4 2 0.929826 0.492634 0.171299
1 1 0.950611 0.572289 0.151524
5 1 0.942412 0.596786 0.171787
8 1 0.966814 0.578468 0.123647
9 1 0.982837 0.584777 0.0961234
49 1 0.798172 0.873622 0.161771
50 2 0.782025 0.863241 0.163089
41 1 0.85297 0.908849 0.157299
45 1 0.879618 0.900256 0.174443
48 1 0.825372 0.891201 0.159481
42 1 0.853931 0.935382 0.13776
43 1 0.854877 0.961508 0.118519
44 2 0.855438 0.976993 0.107116
6 1 0.934391 0.621145 0.191697
7 2 0.929611 0.635543 0.203534
46 1 0.905868 0.891599 0.191475
47 2 0.921455 0.886514 0.201547
70 2 0.208996 0.355823 0.47749
61 1 0.251504 0.428898 0.477383
68 1 0.235085 0.400467 0.477425
69 1 0.218672 0.372455 0.477465
62 1 0.284469 0.428763 0.477435
63 1 0.316928 0.428629 0.477487
64 2 0.336167 0.428551 0.477518
65 1 0.235319 0.457462 0.477289
66 1 0.219136 0.485608 0.477196
67 2 0.209597 0.502319 0.477141
30 2 0.227395 0.533591 0.593056
21 1 0.18136 0.604476 0.594766
25 1 0.152033 0.604815 0.609521
26 1 0.123055 0.604953 0.624161
22 1 0.192861 0.631916 0.580573
28 1 0.199312 0.576997 0.59405
29 1 0.216918 0.549725 0.593445
23 1 0.204185 0.658936 0.566597
24 2 0.210897 0.674951 0.558314
57 2 0.87967 0.685332 0.625155
72 1 0.346389 0.757476 0.629244
73 1 0.31849 0.77382 0.626382
74 2 0.301955 0.783507 0.624686
71 1 0.374722 0.740877 0.63215
78 1 0.402444 0.753718 0.620132
79 1 0.429963 0.766252 0.608311
80 2 0.446242 0.773729 0.601286
88 1 0.445803 0.90898 0.602695
89 1 0.471041 0.907429 0.58233
90 2 0.486031 0.906483 0.570302
86 1 0.363899 0.937169 0.603304
87 2 0.347317 0.944988 0.597458
81 1 0.42017 0.91064 0.623141
85 1 0.391836 0.92396 0.61326
16 1 0.979842 0.174605 0.695391
17 2 0.974759 0.1587 0.685828