ITEM: TIMESTEP
0
ITEM: NUMBER OF ATOMS
170
ITEM: BOX BOUNDS pp pp pp
0.0000000000000000e+00 3.0000000000000000e+01
0.0000000000000000e+00 3.0000000000000000e+01
0.0000000000000000e+00 3.0000000000000000e+01
ITEM: ATOMS id type xs ys zs
26 1 0.418603 0.143934 0.075071
27 1 0.424948 0.170591 0.0560911
28 1 0.431294 0.197248 0.0371112
29 1 0.43764 0.223906 0.0181313
40 2 0.117802 0.597556 0.0827007
156 1 0.126964 0.604402 0.0218414
157 2 0.110165 0.61137 0.049775
21 2 0.386875 0.0106478 0.16997
22 1 0.39322 0.0373051 0.150991
23 1 0.399566 0.0639623 0.132011
24 1 0.405911 0.0906195 0.113031
25 1 0.412257 0.117277 0.0940509
120 2 0.598669 0.361922 0.163661
36 1 0.204624 0.535309 0.162481
38 1 0.161213 0.566433 0.122591
39 1 0.139507 0.581995 0.102646
37 1 0.182919 0.550871 0.142536
111 1 0.61179 0.360937 0.262789
118 1 0.607416 0.361265 0.229747
119 1 0.603043 0.361594 0.196704
33 1 0.269742 0.488624 0.222317
34 1 0.248036 0.504186 0.202371
35 1 0.22633 0.519748 0.182426
31 2 0.313153 0.457501 0.262207
32 1 0.291447 0.473063 0.242262
170 2 0.0752124 0.649923 0.201238
161 1 0.130524 0.723939 0.239471
162 1 0.162372 0.718441 0.247632
168 1 0.112087 0.699267 0.226726
169 1 0.0936497 0.674595 0.213982
163 1 0.19422 0.712943 0.255793
164 2 0.226068 0.707446 0.263954
167 2 0.0902929 0.814448 0.253221
165 1 0.117114 0.754109 0.244054
166 1 0.103703 0.784278 0.248638
19 1 0.240772 0.0303862 0.357618
20 2 0.234764 0.0189664 0.326883
97 2 0.437738 0.0827258 0.337742
91 1 0.508539 0.0131701 0.349938
92 1 0.539536 0.018857 0.339079
95 1 0.484938 0.0363553 0.345873
96 1 0.461338 0.0595406 0.341807
93 1 0.570534 0.0245438 0.32822
94 2 0.601532 0.0302307 0.31736
112 1 0.635554 0.341838 0.276267
113 1 0.659317 0.32274 0.289745
114 2 0.683081 0.303641 0.303223
115 1 0.592401 0.379707 0.282354
116 1 0.573011 0.398477 0.301919
117 2 0.553621 0.417247 0.321484
135 1 0.346845 0.623658 0.36355
136 1 0.356412 0.592745 0.355553
137 2 0.365978 0.561832 0.347556
132 1 0.351673 0.680799 0.356849
133 1 0.366068 0.707027 0.342152
134 2 0.380462 0.733255 0.327455
129 1 0.696248 0.990145 0.343263
130 2 0.694073 0.995379 0.310416
16 1 0.258796 0.0646456 0.449821
17 1 0.252788 0.0532258 0.419086
18 1 0.24678 0.041806 0.388352
125 1 0.715551 0.00218988 0.428466
126 1 0.730503 0.0247041 0.447976
41 2 0.280362 0.159932 0.424071
42 1 0.313538 0.160096 0.420835
43 1 0.346713 0.160261 0.417599
44 1 0.379889 0.160425 0.414364
45 1 0.413064 0.16059 0.411128
46 1 0.44624 0.160754 0.407892
109 1 0.400896 0.175475 0.411675
110 2 0.395946 0.143102 0.40547
47 1 0.479415 0.160918 0.404657
48 1 0.512591 0.161083 0.401421
49 1 0.545766 0.161247 0.398185
50 2 0.578942 0.161411 0.394949
101 1 0.410796 0.240223 0.424086
102 1 0.441546 0.251492 0.430294
105 1 0.384995 0.261327 0.424083
108 1 0.405846 0.207849 0.417881
103 1 0.472296 0.262761 0.436502
106 1 0.359195 0.282432 0.424081
107 2 0.333394 0.303536 0.424078
104 2 0.503046 0.27403 0.44271
140 2 0.265399 0.668625 0.439629
131 1 0.337279 0.654571 0.371547
138 1 0.313319 0.659256 0.394241
139 1 0.289359 0.66394 0.416935
124 2 0.662272 0.896429 0.44897
98 1 0.501142 0.984298 0.364863
99 1 0.493745 0.955426 0.379788
100 2 0.486347 0.926554 0.394712
121 1 0.7006 0.979676 0.408957
122 1 0.687824 0.951927 0.422294
123 1 0.675048 0.924178 0.435632
128 1 0.698424 0.98491 0.37611
14 1 0.270812 0.0874852 0.51129
15 1 0.264804 0.0760654 0.480555
127 2 0.745455 0.0472183 0.467485
13 1 0.27682 0.098905 0.542024
51 2 0.678575 0.554443 0.496479
52 1 0.669199 0.586241 0.493006
53 1 0.659823 0.618039 0.489533
56 1 0.631696 0.713435 0.479115
54 1 0.650447 0.649838 0.48606
55 1 0.641071 0.681636 0.482588
57 1 0.62232 0.745233 0.475642
58 1 0.612944 0.777032 0.472169
59 1 0.603568 0.80883 0.468696
60 2 0.594192 0.840629 0.465223
9 1 0.340414 0.993198 0.542239
10 2 0.366514 0.998385 0.522165
11 2 0.288836 0.121745 0.603493
12 1 0.282828 0.110325 0.572758
80 2 0.406705 0.819071 0.616993
5 1 0.236011 0.972454 0.622536
6 1 0.262112 0.97764 0.602461
7 1 0.288212 0.982826 0.582387
8 1 0.314313 0.988012 0.562313
149 1 0.540366 0.0845086 0.700363
150 2 0.51781 0.0615316 0.708985
141 1 0.585478 0.130462 0.683118
142 1 0.61793 0.122851 0.683298
145 1 0.575582 0.161051 0.674315
148 1 0.562922 0.107486 0.69174
143 1 0.650383 0.11524 0.683478
144 2 0.682835 0.107629 0.683659
146 1 0.565686 0.191639 0.665512
147 2 0.55579 0.222227 0.65671
62 1 0.570645 0.437376 0.702387
63 1 0.597497 0.419709 0.711217
64 1 0.624349 0.402042 0.720047
61 2 0.543793 0.455043 0.693558
71 1 0.418625 0.827614 0.715909
78 1 0.414651 0.824767 0.682937
79 1 0.410678 0.821919 0.649965
1 2 0.131609 0.951709 0.702832
2 1 0.157709 0.956895 0.682758
3 1 0.18381 0.962081 0.662684
4 1 0.20991 0.967268 0.64261
67 1 0.704904 0.349042 0.746537
68 1 0.731756 0.331375 0.755367
69 1 0.758608 0.313708 0.764197
70 2 0.78546 0.296041 0.773027
65 1 0.6512 0.384375 0.728877
66 1 0.678052 0.366708 0.737707
72 1 0.41752 0.800478 0.735236
73 1 0.416415 0.773341 0.754562
74 2 0.41531 0.746205 0.773888
75 1 0.423703 0.857599 0.729555
76 1 0.428782 0.887583 0.743201
77 2 0.43386 0.917567 0.756847
82 1 0.266093 0.0284779 0.905614
81 1 0.288454 0.0527102 0.900726
85 1 0.280729 0.078913 0.881627
87 2 0.265278 0.131319 0.843427
86 1 0.273004 0.105116 0.862527
160 2 0.112084 0.555118 0.885976
83 1 0.243732 0.00424548 0.910501
88 1 0.318541 0.0507398 0.914939
89 1 0.348627 0.0487694 0.929151
90 2 0.378713 0.046799 0.943363
30 2 0.443985 0.250563 0.999151
151 1 0.160563 0.590466 0.965974
155 1 0.143764 0.597434 0.993908
158 1 0.144404 0.578683 0.939308
159 1 0.128244 0.566901 0.912642
152 1 0.193523 0.595281 0.964707
153 1 0.226482 0.600096 0.96344
154 2 0.259442 0.604911 0.962172
84 2 0.221371 0.980013 0.915388
