ITEM: TIMESTEP
0
ITEM: NUMBER OF ATOMS
300
ITEM: BOX BOUNDS pp pp pp
0.0000000000000000e+00 3.0000000000000000e+01
0.0000000000000000e+00 3.0000000000000000e+01
0.0000000000000000e+00 3.0000000000000000e+01
ITEM: ATOMS id type xs ys zs
226 1 0.268118 0.0800594 0.0842363
227 2 0.300381 0.0500076 0.0836162
37 2 0.52841 0.0567772 0.033762
36 1 0.568222 0.0580456 0.0148473
185 1 0.590066 0.0176867 0.070293
38 1 0.659797 0.0430776 0.0156854
39 1 0.671747 0.0255729 0.0543529
221 1 0.209034 0.127718 0.0758176
225 1 0.235855 0.110111 0.0848564
228 1 0.193098 0.120437 0.0474613
229 1 0.182605 0.10071 0.00944611
251 1 0.436905 0.166296 0.0443805
252 1 0.416061 0.17441 0.0690948
258 1 0.428089 0.1717 0.0126922
255 1 0.466565 0.152779 0.0513545
256 1 0.506647 0.135206 0.0459713
257 2 0.54673 0.117632 0.0405881
203 1 0.901679 0.180802 0.012118
204 2 0.927998 0.185556 0.0320144
122 1 0.223314 0.393932 0.00537504
123 1 0.248251 0.399509 0.0267797
124 2 0.273188 0.405086 0.0481844
92 1 0.467799 0.537827 0.0221269
93 1 0.493052 0.522369 0.0374395
94 2 0.518304 0.506911 0.0527521
242 1 0.456671 0.457176 0.0887063
243 1 0.479822 0.472904 0.0706023
244 2 0.502974 0.488632 0.0524984
10 2 0.00567066 0.613373 0.0612709
100 2 0.352261 0.622993 0.0446727
91 1 0.442547 0.553285 0.00681437
98 1 0.420869 0.571368 0.024538
99 1 0.386565 0.597181 0.0346054
144 2 0.236589 0.659509 0.0058911
265 1 0.278845 0.698522 0.00807389
266 1 0.28405 0.69945 0.0518511
190 2 0.514781 0.907665 0.0681824
181 1 0.596751 0.993333 0.0485386
182 1 0.622258 0.996485 0.0273119
188 1 0.57793 0.965827 0.048011
189 1 0.546356 0.936746 0.0580967
183 1 0.647765 0.999636 0.00608519
176 1 0.209522 0.0305491 0.153263
177 2 0.228255 0.0289079 0.113379
186 1 0.570626 0.0404647 0.102661
187 2 0.551187 0.0632426 0.135029
40 2 0.683697 0.00806818 0.0930203
222 1 0.19815 0.152607 0.0951353
223 1 0.187265 0.177496 0.114453
224 2 0.17638 0.202385 0.133771
253 1 0.395216 0.182523 0.0938092
254 2 0.374372 0.190637 0.118523
250 2 0.423756 0.330131 0.15105
241 1 0.43352 0.441448 0.10681
248 1 0.437982 0.409585 0.115522
249 1 0.430869 0.369858 0.133286
247 2 0.327528 0.474125 0.153091
245 1 0.405906 0.457583 0.116203
246 1 0.366717 0.465854 0.134647
2 1 0.939952 0.531441 0.161665
3 1 0.931769 0.50008 0.169451
4 2 0.923586 0.468719 0.177236
1 1 0.948135 0.562803 0.15388
5 1 0.939868 0.587761 0.174368
8 1 0.964586 0.569206 0.125605
9 1 0.985128 0.591289 0.093438
267 2 0.289255 0.700379 0.0956282
49 1 0.796858 0.86755 0.165804
50 2 0.768413 0.836135 0.177984
45 1 0.880252 0.908136 0.16878
48 1 0.825304 0.898965 0.153624
180 2 0.06823 0.987705 0.165269
41 1 0.853264 0.916965 0.151323
42 1 0.854235 0.943794 0.131565
43 1 0.855207 0.970623 0.111807
44 2 0.856178 0.997452 0.0920486
171 1 0.168088 0.0295774 0.217415
172 1 0.176026 0.0380858 0.248651
178 1 0.137448 0.0184562 0.210445
179 1 0.102839 0.00308068 0.187857
175 1 0.19079 0.0321904 0.193148
219 1 0.594014 0.266113 0.26847
220 2 0.627747 0.238321 0.262635
160 2 0.945355 0.266731 0.264416
151 1 0.0247701 0.356932 0.265431
152 1 0.0574854 0.358856 0.271523
158 1 0.00920351 0.327507 0.267123
215 1 0.556128 0.350755 0.265137
159 1 0.977279 0.297119 0.26577
155 1 0.00762127 0.384435 0.257646
216 1 0.585709 0.379812 0.250135
217 2 0.61529 0.408869 0.235133
156 1 0.974115 0.410975 0.246815
157 2 0.940608 0.437516 0.235984
6 1 0.935692 0.6284 0.190964
7 2 0.931516 0.669039 0.20756
169 1 0.34106 0.850913 0.191681
170 2 0.308462 0.821219 0.191706
168 1 0.373658 0.880608 0.191656
46 1 0.906755 0.885893 0.196115
47 2 0.933258 0.86365 0.223451
166 1 0.338162 0.966342 0.191111
167 2 0.304115 0.994362 0.190851
161 1 0.389595 0.909884 0.191573
162 1 0.422918 0.910721 0.19169
165 1 0.372209 0.938322 0.191371
163 1 0.45624 0.911558 0.191808
164 2 0.489563 0.912395 0.191926
173 1 0.183964 0.0465942 0.279887
174 2 0.191902 0.0551025 0.311123
153 1 0.0902007 0.360779 0.277616
154 2 0.122916 0.362703 0.283708
214 2 0.447404 0.320116 0.306184
211 1 0.542375 0.322014 0.27493
212 1 0.510718 0.321381 0.285348
213 1 0.479061 0.320749 0.295766
218 1 0.56028 0.293905 0.274304
119 1 0.327354 0.803242 0.418898
120 2 0.336344 0.81156 0.376538
193 1 0.783317 0.0147907 0.520653
194 2 0.768965 0.0329511 0.496667
283 1 0.266355 0.24287 0.523187
284 2 0.245567 0.25214 0.498834
70 2 0.177899 0.342599 0.477472
61 1 0.261587 0.428856 0.477399
68 1 0.244802 0.400058 0.477441
69 1 0.211351 0.371329 0.477456
62 1 0.29492 0.42872 0.477452
63 1 0.328253 0.428583 0.477505
64 2 0.361586 0.428446 0.477558
67 2 0.17861 0.515797 0.47706
65 1 0.245039 0.457791 0.477304
66 1 0.211825 0.486794 0.477182
299 1 0.503762 0.538488 0.516265
300 2 0.464186 0.519832 0.52175
280 2 0.618816 0.476224 0.496396
278 1 0.684353 0.535177 0.499019
279 1 0.651584 0.505701 0.497707
298 1 0.543338 0.557144 0.510781
291 1 0.566795 0.579818 0.503944
292 1 0.599033 0.571784 0.50665
293 1 0.63127 0.56375 0.509355
295 1 0.558015 0.610525 0.494403
271 1 0.700458 0.564333 0.500303
275 1 0.683236 0.592845 0.501533
276 1 0.649351 0.621036 0.502736
294 2 0.663507 0.555716 0.51206
272 1 0.733785 0.564976 0.500357
273 1 0.767112 0.565619 0.500411
274 2 0.80044 0.566262 0.500465
296 1 0.533116 0.645249 0.483508
297 2 0.508218 0.679973 0.472614
277 2 0.615465 0.649227 0.503938
115 1 0.270955 0.805212 0.49256
111 1 0.302016 0.793336 0.490264
112 1 0.31673 0.779874 0.516973
113 1 0.331443 0.766412 0.543682
118 1 0.318363 0.794923 0.461258
116 1 0.232538 0.823818 0.481501
117 2 0.19412 0.842424 0.470442
109 1 0.336002 0.882564 0.499396
110 2 0.335519 0.845672 0.475249
101 1 0.327319 0.942969 0.545321
108 1 0.336485 0.919457 0.523544
90 2 0.496102 0.914076 0.538953
192 1 0.797668 0.99663 0.54464
104 2 0.385216 0.0232529 0.559545
289 1 0.324298 0.155254 0.600066
290 2 0.337678 0.118399 0.620241
281 1 0.307932 0.22433 0.571891
282 1 0.287143 0.2336 0.547539
285 1 0.325734 0.247281 0.588244
286 1 0.35393 0.265596 0.616773
288 1 0.310918 0.19211 0.57989
140 2 0.677006 0.431404 0.591755
29 1 0.215325 0.543071 0.596281
30 2 0.227641 0.501235 0.602797
139 1 0.679476 0.467086 0.617545
25 1 0.155118 0.613085 0.605437
26 1 0.119543 0.599427 0.627625
21 1 0.184878 0.612869 0.590425
28 1 0.203008 0.584907 0.589765
22 1 0.196507 0.640616 0.576073
23 1 0.208136 0.668363 0.561721
24 2 0.219766 0.69611 0.547369
57 2 0.884727 0.663586 0.59979
72 1 0.337406 0.762738 0.628322
73 1 0.308757 0.779522 0.625383
74 2 0.280107 0.796306 0.622445
114 2 0.346157 0.75295 0.570392
71 1 0.366055 0.745955 0.631261
78 1 0.394269 0.758884 0.619101
79 1 0.436807 0.763422 0.60841
80 2 0.479346 0.76796 0.597719
107 2 0.222622 0.906459 0.591685
81 1 0.421005 0.907034 0.63252
88 1 0.446958 0.905407 0.611667
197 2 0.900446 0.897087 0.56991
237 2 0.834026 0.895834 0.620346
106 1 0.260737 0.923089 0.577021
86 1 0.362198 0.94009 0.596713
87 2 0.332104 0.959598 0.571058
102 1 0.346618 0.96973 0.550062
105 1 0.298853 0.939719 0.562356
85 1 0.392292 0.920581 0.622368
103 1 0.365917 0.996492 0.554803
89 1 0.47153 0.909741 0.57531
191 1 0.812019 0.97847 0.568626
198 1 0.801679 0.981383 0.60018
195 1 0.836711 0.957396 0.561059
196 1 0.868579 0.927242 0.565484
16 1 0.978726 0.173699 0.688125
17 2 0.968009 0.146654 0.654987
18 1 0.00322292 0.256809 0.721342
15 1 0.989443 0.200744 0.721263
19 1 0.00628626 0.285828 0.688283
20 2 0.0093496 0.314848 0.655224
287 2 0.382126 0.283912 0.645302
136 1 0.596996 0.527093 0.671663
137 2 0.553287 0.521416 0.672932
131 1 0.672871 0.528109 0.662995
135 1 0.640706 0.532771 0.670394
138 1 0.681946 0.502767 0.643335
27 2 0.0839685 0.585769 0.649813
132 1 0.695961 0.548789 0.675255
133 1 0.719051 0.569468 0.687516
134 2 0.742141 0.590148 0.699776
75 1 0.366491 0.716241 0.64636
76 1 0.381251 0.678136 0.662928
77 2 0.396011 0.64003 0.679496
51 1 0.898022 0.710851 0.709486
55 1 0.88925 0.703926 0.678083
56 1 0.886988 0.683756 0.638936
58 1 0.919814 0.691285 0.725403
52 1 0.885002 0.737342 0.724973
82 1 0.423766 0.895112 0.663526
83 1 0.426527 0.883191 0.694532
84 2 0.429287 0.87127 0.725538
235 1 0.856158 0.857952 0.696849
236 1 0.845092 0.876893 0.658597
199 1 0.798515 0.975217 0.643727
200 2 0.79535 0.96905 0.687274
12 1 0.00207298 0.227296 0.770949
13 1 0.00589977 0.226308 0.804048
11 1 0.998246 0.228283 0.737851
60 2 0.976418 0.625662 0.74175
59 1 0.948116 0.658474 0.733577
53 1 0.871982 0.763832 0.740459
54 2 0.858962 0.790323 0.755946
233 1 0.870076 0.793328 0.755226
234 2 0.871978 0.762874 0.768643
231 1 0.866273 0.854237 0.728392
232 1 0.868175 0.823783 0.741809
238 1 0.874487 0.880978 0.746517
239 1 0.881749 0.922946 0.757935
240 2 0.889012 0.964913 0.769352
34 2 0.682675 0.0840488 0.90504
14 2 0.00972656 0.225321 0.837146
207 2 0.796464 0.23704 0.886553
97 2 0.40657 0.560867 0.892393
264 2 0.218114 0.67128 0.908004
230 2 0.172111 0.0809841 0.971431
35 1 0.608035 0.059314 0.995933
31 1 0.640881 0.0558891 0.991413
32 1 0.654813 0.0652757 0.962622
33 1 0.668744 0.0746622 0.933831
184 2 0.673272 0.00278786 0.984858
210 2 0.770032 0.081777 0.958616
259 1 0.429696 0.173047 0.968647
260 2 0.431303 0.174394 0.924601
209 1 0.800755 0.112408 0.966502
201 1 0.849043 0.171294 0.972325
202 1 0.875361 0.176048 0.992222
208 1 0.831479 0.14304 0.974388
205 1 0.840289 0.194794 0.950367
206 1 0.818377 0.215917 0.91846
130 2 0.167593 0.29541 0.914275
128 1 0.196428 0.359233 0.967874
129 1 0.182011 0.327321 0.941074
125 1 0.175389 0.411902 0.978663
126 1 0.139932 0.43266 0.962652
127 2 0.104476 0.453419 0.946642
121 1 0.198377 0.388356 0.98397
149 1 0.0856432 0.629392 0.959616
150 2 0.0481386 0.607424 0.952187
95 1 0.438972 0.55066 0.973778
96 1 0.422771 0.555763 0.933086
141 1 0.145465 0.676093 0.968191
142 1 0.17584 0.670565 0.980757
145 1 0.137407 0.706353 0.956769
148 1 0.123148 0.65136 0.967045
143 1 0.206215 0.665037 0.993324
262 1 0.262535 0.692331 0.953038
263 1 0.240324 0.681806 0.930521
261 1 0.284746 0.702857 0.975555
268 1 0.312856 0.717717 0.965554
146 1 0.114163 0.739378 0.939064
147 2 0.0909176 0.772402 0.921359
269 1 0.352072 0.737839 0.966811
270 2 0.391288 0.757962 0.968068
