ITEM: TIMESTEP
0
ITEM: NUMBER OF ATOMS
300
ITEM: BOX BOUNDS pp pp pp
0.0000000000000000e+00 3.0000000000000000e+01
0.0000000000000000e+00 3.0000000000000000e+01
0.0000000000000000e+00 3.0000000000000000e+01
ITEM: ATOMS id type xs ys zs
226 1 0.265941 0.0850372 0.0880998
37 2 0.538162 0.0633478 0.0136082
35 1 0.603855 0.056498 0.00456992
36 1 0.571009 0.0599229 0.00908908
185 1 0.582413 0.0167412 0.0766611
31 1 0.636702 0.0530731 5.0751e-05
38 1 0.655618 0.0402617 0.0243227
39 1 0.674533 0.0274502 0.0485946
40 2 0.693449 0.0146388 0.0728666
229 1 0.180428 0.105688 0.0133096
221 1 0.2123 0.120252 0.0700224
222 1 0.201415 0.145141 0.08934
225 1 0.23912 0.102644 0.0790611
228 1 0.196364 0.11297 0.041666
251 1 0.443158 0.163862 0.0369662
252 1 0.422314 0.171976 0.0616805
253 1 0.40147 0.180089 0.0863949
258 1 0.434343 0.169266 0.00527795
255 1 0.472818 0.150345 0.0439402
256 1 0.502478 0.136828 0.0509141
257 2 0.532138 0.123311 0.0578881
203 1 0.893784 0.179376 0.00614912
204 2 0.920102 0.18413 0.0260455
123 1 0.24077 0.397836 0.0203583
124 2 0.265707 0.403413 0.041763
92 1 0.460224 0.542464 0.0175332
93 1 0.485476 0.527007 0.0328457
94 2 0.510728 0.511549 0.0481583
243 1 0.472877 0.468186 0.0760335
244 2 0.496028 0.483914 0.0579296
91 1 0.434971 0.557922 0.00222059
98 1 0.413293 0.576006 0.0199442
99 1 0.391615 0.594089 0.0376679
100 2 0.369937 0.612172 0.0553915
10 2 0.999943 0.59142 0.0667208
144 2 0.227477 0.661167 0.00212105
265 1 0.285508 0.70168 0.014829
266 1 0.279608 0.697345 0.0473477
267 2 0.273708 0.693011 0.0798663
190 2 0.532636 0.909871 0.0533236
181 1 0.589099 0.992387 0.0549067
182 1 0.614606 0.995539 0.0336799
188 1 0.570278 0.964882 0.054379
189 1 0.551457 0.937376 0.0538513
183 1 0.640113 0.998691 0.0124532
176 1 0.21111 0.0322508 0.15951
177 2 0.233812 0.0348637 0.135244
227 2 0.292762 0.0674299 0.0971385
186 1 0.575728 0.041095 0.0984155
187 2 0.569042 0.0654488 0.12017
223 1 0.19053 0.17003 0.108658
224 2 0.179646 0.194919 0.127975
254 2 0.380625 0.188203 0.111109
250 2 0.439961 0.34114 0.138377
241 1 0.426574 0.436729 0.112242
242 1 0.449726 0.452458 0.0941375
245 1 0.398961 0.452864 0.121634
248 1 0.431037 0.404866 0.120953
249 1 0.435499 0.373003 0.129665
247 2 0.343734 0.485134 0.140418
246 1 0.371347 0.468999 0.131026
2 1 0.942407 0.54085 0.159329
3 1 0.934224 0.509488 0.167115
4 2 0.926041 0.478127 0.174901
1 1 0.95059 0.572211 0.151544
5 1 0.942323 0.597169 0.172033
8 1 0.967041 0.578614 0.123269
9 1 0.983492 0.585017 0.0949951
49 1 0.797053 0.872916 0.161852
50 2 0.769093 0.854915 0.164153
41 1 0.852973 0.908916 0.15725
45 1 0.879961 0.900088 0.174707
48 1 0.825013 0.890916 0.159551
42 1 0.853944 0.935745 0.137492
43 1 0.854915 0.962574 0.117734
44 2 0.855887 0.989403 0.097976
171 1 0.165706 0.0270249 0.208044
172 1 0.173645 0.0355333 0.23928
173 1 0.181583 0.0440416 0.270516
178 1 0.135066 0.0159036 0.201074
179 1 0.104427 0.00478236 0.194104
175 1 0.188408 0.0296379 0.183777
219 1 0.587682 0.265986 0.270553
220 2 0.605587 0.237878 0.269928
160 2 0.968256 0.268078 0.26868
151 1 0.0149555 0.356355 0.263603
152 1 0.0476708 0.358279 0.269696
211 1 0.551873 0.322203 0.271804
215 1 0.565625 0.350944 0.262011
218 1 0.569777 0.294095 0.271179
158 1 0.999389 0.326929 0.265296
159 1 0.983822 0.297504 0.266988
216 1 0.579377 0.379685 0.252219
217 2 0.59313 0.408426 0.242426
155 1 0.997807 0.383858 0.255818
156 1 0.980658 0.41136 0.248034
157 2 0.963509 0.438862 0.240249
6 1 0.934055 0.622128 0.192521
7 2 0.925787 0.647086 0.21301
169 1 0.347725 0.851081 0.191704
170 2 0.331788 0.821805 0.191788
168 1 0.363662 0.880357 0.191621
46 1 0.906949 0.891259 0.192164
47 2 0.933938 0.882431 0.209621
180 2 0.0737867 0.993661 0.187134
165 1 0.362212 0.938071 0.191336
166 1 0.344827 0.96651 0.191135
167 2 0.327441 0.994948 0.190933
161 1 0.379598 0.909632 0.191537
162 1 0.412921 0.91047 0.191655
163 1 0.446244 0.911307 0.191773
164 2 0.479566 0.912144 0.19189
174 2 0.189521 0.05255 0.301752
153 1 0.0803861 0.360202 0.275788
154 2 0.113101 0.362126 0.281881
212 1 0.520215 0.321571 0.282222
213 1 0.488558 0.320939 0.29264
214 2 0.456901 0.320306 0.303058
118 1 0.313949 0.798962 0.453246
119 1 0.330296 0.800549 0.42424
120 2 0.346644 0.802136 0.395235
193 1 0.787622 0.00934253 0.527849
194 2 0.773271 0.0275029 0.503863
283 1 0.272592 0.240089 0.530492
284 2 0.251803 0.249359 0.50614
70 2 0.201232 0.342503 0.477509
61 1 0.251587 0.428897 0.477383
68 1 0.234802 0.400099 0.477425
69 1 0.218017 0.371301 0.477467
62 1 0.28492 0.428761 0.477436
63 1 0.318253 0.428624 0.477489
64 2 0.351586 0.428487 0.477542
65 1 0.235039 0.457832 0.477288
66 1 0.218491 0.486767 0.477192
67 2 0.201943 0.515701 0.477097
299 1 0.510209 0.536881 0.516807
300 2 0.486752 0.514208 0.523643
278 1 0.674355 0.534985 0.499002
279 1 0.65825 0.505829 0.497718
280 2 0.642145 0.476674 0.496434
298 1 0.533667 0.559555 0.50997
291 1 0.557124 0.582228 0.503133
292 1 0.589361 0.574194 0.505838
293 1 0.621599 0.56616 0.508543
295 1 0.548344 0.612935 0.493591
271 1 0.69046 0.56414 0.500286
272 1 0.723787 0.564783 0.500341
275 1 0.673238 0.592652 0.501516
276 1 0.656016 0.621165 0.502746
294 2 0.653836 0.558126 0.511248
273 1 0.757114 0.565426 0.500395
274 2 0.790441 0.566069 0.500449
296 1 0.539564 0.643642 0.484049
297 2 0.530784 0.674349 0.474507
277 2 0.638794 0.649677 0.503976
115 1 0.266541 0.80925 0.484547
111 1 0.297602 0.797375 0.482251
112 1 0.312316 0.783913 0.50896
113 1 0.327029 0.770451 0.53567
116 1 0.235481 0.821125 0.486843
117 2 0.20442 0.833001 0.489139
109 1 0.339862 0.887917 0.500345
110 2 0.349028 0.864405 0.478568
101 1 0.321529 0.93494 0.543898
108 1 0.330695 0.911429 0.522121
104 2 0.379427 0.0152245 0.558122
289 1 0.32014 0.157108 0.595195
290 2 0.323126 0.124888 0.603195
281 1 0.314168 0.221549 0.579197
282 1 0.29338 0.230819 0.554844
285 1 0.33197 0.2445 0.595549
286 1 0.349772 0.26745 0.611902
288 1 0.317154 0.189329 0.587196
287 2 0.367575 0.290401 0.628255
140 2 0.693169 0.44588 0.600338
30 2 0.235781 0.520658 0.592751
139 1 0.684094 0.471222 0.619997
21 1 0.181389 0.604545 0.594731
25 1 0.151629 0.604761 0.609743
26 1 0.121869 0.604977 0.624754
22 1 0.193018 0.632292 0.580379
28 1 0.19952 0.576583 0.594071
29 1 0.21765 0.54862 0.593411
23 1 0.204648 0.660039 0.566027
24 2 0.216277 0.687786 0.551675
57 2 0.875612 0.68213 0.610631
72 1 0.346001 0.757703 0.629204
73 1 0.317351 0.774487 0.626265
74 2 0.288702 0.791271 0.623326
114 2 0.341743 0.756988 0.562379
71 1 0.37465 0.740919 0.632143
78 1 0.402864 0.753849 0.619982
79 1 0.431077 0.766779 0.607822
80 2 0.459291 0.779709 0.595662
88 1 0.446129 0.908984 0.602365
89 1 0.472082 0.907357 0.581511
90 2 0.498034 0.905731 0.560657
237 2 0.835357 0.874516 0.629738
106 1 0.264597 0.928442 0.577969
107 2 0.236131 0.925192 0.595004
86 1 0.36275 0.937706 0.602914
87 2 0.334037 0.951254 0.592762
102 1 0.340828 0.961702 0.54864
103 1 0.360127 0.988463 0.553381
105 1 0.293063 0.931691 0.560934
81 1 0.420177 0.91061 0.623219
85 1 0.391463 0.924158 0.613066
191 1 0.816325 0.973022 0.575822
192 1 0.801973 0.991182 0.551836
198 1 0.805985 0.975935 0.607376
195 1 0.841017 0.951948 0.568254
196 1 0.865708 0.930874 0.560687
197 2 0.8904 0.9098 0.553119
16 1 0.979491 0.173502 0.694745
17 2 0.970688 0.145963 0.678156
18 1 0.00207488 0.257105 0.711412
15 1 0.988295 0.20104 0.711333
19 1 0.00705162 0.285631 0.694903
20 2 0.0120284 0.314157 0.678393
135 1 0.633779 0.526567 0.666716
136 1 0.601614 0.531229 0.674115
137 2 0.56945 0.535892 0.681515
131 1 0.665944 0.521905 0.659317
132 1 0.689034 0.542585 0.671577
138 1 0.675019 0.496563 0.639657
27 2 0.092109 0.605192 0.639766
133 1 0.712124 0.563264 0.683838
134 2 0.735214 0.583944 0.696098
75 1 0.375085 0.711206 0.647241
76 1 0.375521 0.681492 0.66234
77 2 0.375956 0.651779 0.677439
51 1 0.901928 0.702904 0.70484
55 1 0.893156 0.695979 0.673437
56 1 0.884384 0.689054 0.642034
58 1 0.92372 0.683338 0.720757
52 1 0.888908 0.729395 0.720327
82 1 0.422938 0.898689 0.654225
83 1 0.425698 0.886767 0.685231
84 2 0.428459 0.874846 0.716237
231 1 0.865703 0.863374 0.724366
235 1 0.855588 0.867088 0.692824
236 1 0.845472 0.870802 0.661281
199 1 0.795644 0.978849 0.63893
200 2 0.785304 0.981762 0.670484
12 1 0.000924938 0.227592 0.76102
13 1 0.00475173 0.226605 0.794118
11 1 0.997098 0.228579 0.727922
59 1 0.945512 0.663772 0.736674
60 2 0.967304 0.644206 0.752591
53 1 0.875888 0.755885 0.735813
54 2 0.862868 0.782376 0.7513
233 1 0.869506 0.802465 0.7512
234 2 0.871407 0.77201 0.764617
232 1 0.867604 0.832919 0.737783
238 1 0.873916 0.890114 0.742492
239 1 0.882129 0.916855 0.760618
240 2 0.890343 0.943595 0.778744
14 2 0.00857852 0.225617 0.827216
207 2 0.814886 0.240368 0.900481
97 2 0.424247 0.550047 0.903112
32 1 0.650633 0.0624597 0.97126
33 1 0.664564 0.0718463 0.942469
34 2 0.678495 0.0812328 0.913677
184 2 0.66562 0.00184236 0.991226
210 2 0.788455 0.0851049 0.972543
230 2 0.164492 0.0984064 0.984953
259 1 0.425527 0.17467 0.97359
260 2 0.416711 0.180074 0.941901
209 1 0.806019 0.113359 0.970481
201 1 0.841148 0.169868 0.966356
202 1 0.867466 0.174622 0.986253
208 1 0.823583 0.141613 0.968419
205 1 0.832394 0.193368 0.944398
206 1 0.82364 0.216868 0.922439
128 1 0.188947 0.35756 0.961452
129 1 0.186998 0.328437 0.945355
130 2 0.185049 0.299313 0.929258
125 1 0.167908 0.410229 0.972241
126 1 0.14492 0.433776 0.966933
121 1 0.190896 0.386683 0.977549
122 1 0.215833 0.392259 0.998954
127 2 0.121932 0.457322 0.961626
150 2 0.0694009 0.603554 0.960984
149 1 0.0917181 0.628286 0.96213
95 1 0.431396 0.555297 0.969184
96 1 0.427822 0.552672 0.936148
141 1 0.136353 0.677751 0.96442
142 1 0.166727 0.672223 0.976987
145 1 0.128295 0.708012 0.952999
148 1 0.114035 0.653019 0.963275
143 1 0.197102 0.666695 0.989554
262 1 0.269198 0.695489 0.959793
263 1 0.246988 0.684963 0.937276
264 2 0.224777 0.674438 0.914759
261 1 0.291409 0.706014 0.98231
268 1 0.319519 0.720874 0.972309
146 1 0.120237 0.738272 0.941578
147 2 0.11218 0.768532 0.930156
269 1 0.34763 0.735734 0.962307
270 2 0.375741 0.750594 0.952306
