ITEM: TIMESTEP
0
ITEM: NUMBER OF ATOMS
170
ITEM: BOX BOUNDS pp pp pp
0.0000000000000000e+00 3.0000000000000000e+01
0.0000000000000000e+00 3.0000000000000000e+01
0.0000000000000000e+00 3.0000000000000000e+01
ITEM: ATOMS id type xs ys zs
26 1 0.418603 0.143934 0.075071
27 1 0.424948 0.170591 0.0560911
28 1 0.431294 0.197248 0.0371112
29 1 0.43764 0.223906 0.0181313
115 1 0.425189 0.220169 0.083175
116 1 0.445534 0.241486 0.0675964
117 2 0.46588 0.262803 0.0520177
40 2 0.117802 0.597556 0.0827007
159 1 0.338038 0.96572 0.0730579
160 2 0.35224 0.946405 0.0499003
151 1 0.309633 0.00435053 0.119373
152 1 0.326856 0.0294147 0.133021
153 1 0.34408 0.0544789 0.146668
154 2 0.361303 0.0795432 0.160316
21 2 0.386875 0.0106478 0.16997
22 1 0.39322 0.0373051 0.150991
23 1 0.399566 0.0639623 0.132011
24 1 0.405911 0.0906195 0.113031
25 1 0.412257 0.117277 0.0940509
112 1 0.417057 0.170798 0.111979
113 1 0.429271 0.142744 0.125205
114 2 0.441486 0.11469 0.13843
119 1 0.339723 0.212325 0.10346
120 2 0.307164 0.219061 0.105813
111 1 0.404843 0.198852 0.0987537
118 1 0.372283 0.205588 0.101107
36 1 0.204624 0.535309 0.162481
38 1 0.161213 0.566433 0.122591
39 1 0.139507 0.581995 0.102646
37 1 0.182919 0.550871 0.142536
76 1 0.608253 0.697243 0.162704
77 2 0.618791 0.705821 0.132266
121 1 0.753484 0.808662 0.175543
128 1 0.76492 0.783774 0.156545
129 1 0.776355 0.758887 0.137548
130 2 0.78779 0.733999 0.11855
125 1 0.723157 0.821315 0.169953
126 1 0.692831 0.833968 0.164363
127 2 0.662504 0.846621 0.158773
156 1 0.246782 0.992853 0.138393
157 2 0.215356 0.987104 0.147903
155 1 0.278208 0.998602 0.128883
158 1 0.323836 0.985035 0.0962155
110 2 0.791623 0.145147 0.254859
140 2 0.260245 0.280885 0.249083
131 1 0.348565 0.327319 0.242522
135 1 0.354348 0.354756 0.260544
138 1 0.319125 0.311841 0.244709
139 1 0.289685 0.296363 0.246896
132 1 0.372222 0.315359 0.222312
133 1 0.395879 0.3034 0.202102
134 2 0.419536 0.29144 0.181893
33 1 0.269742 0.488624 0.222317
34 1 0.248036 0.504186 0.202371
35 1 0.22633 0.519748 0.182426
31 2 0.313153 0.457501 0.262207
32 1 0.291447 0.473063 0.242262
79 1 0.591904 0.616761 0.24387
80 2 0.594267 0.585098 0.254016
71 1 0.587177 0.680087 0.223578
72 1 0.574275 0.703172 0.24387
73 1 0.561374 0.726257 0.264161
75 1 0.597715 0.688665 0.193141
78 1 0.58954 0.648424 0.233724
122 1 0.772376 0.820896 0.20013
123 1 0.791267 0.83313 0.224718
124 2 0.810158 0.845364 0.249306
19 1 0.240772 0.0303862 0.357618
20 2 0.234764 0.0189664 0.326883
109 1 0.808548 0.153712 0.282268
101 1 0.842397 0.170842 0.337086
102 1 0.875723 0.170131 0.336999
103 1 0.909049 0.169421 0.336912
108 1 0.825472 0.162277 0.309677
104 2 0.942374 0.168711 0.336824
136 1 0.360131 0.382193 0.278567
137 2 0.365914 0.40963 0.29659
74 2 0.548472 0.749342 0.284453
16 1 0.258796 0.0646456 0.449821
17 1 0.252788 0.0532258 0.419086
18 1 0.24678 0.041806 0.388352
41 2 0.280362 0.159932 0.424071
42 1 0.313538 0.160096 0.420835
43 1 0.346713 0.160261 0.417599
44 1 0.379889 0.160425 0.414364
45 1 0.413064 0.16059 0.411128
46 1 0.44624 0.160754 0.407892
47 1 0.479415 0.160918 0.404657
48 1 0.512591 0.161083 0.401421
49 1 0.545766 0.161247 0.398185
50 2 0.578942 0.161411 0.394949
105 1 0.825996 0.180117 0.364582
106 1 0.809596 0.189392 0.392079
107 2 0.793195 0.198668 0.419575
14 1 0.270812 0.0874852 0.51129
15 1 0.264804 0.0760654 0.480555
13 1 0.27682 0.098905 0.542024
146 1 0.0215785 0.402348 0.527015
147 2 0.00129614 0.384103 0.507863
144 2 0.0827363 0.533466 0.540386
98 1 0.100027 0.618735 0.541453
99 1 0.108744 0.587113 0.535525
100 2 0.117461 0.555492 0.529596
51 2 0.678575 0.554443 0.496479
52 1 0.669199 0.586241 0.493006
53 1 0.659823 0.618039 0.489533
95 1 0.0646085 0.663395 0.532279
96 1 0.0379069 0.676433 0.517176
97 2 0.0112052 0.689471 0.502074
56 1 0.631696 0.713435 0.479115
54 1 0.650447 0.649838 0.48606
55 1 0.641071 0.681636 0.482588
57 1 0.62232 0.745233 0.475642
58 1 0.612944 0.777032 0.472169
59 1 0.603568 0.80883 0.468696
60 2 0.594192 0.840629 0.465223
9 1 0.340414 0.993198 0.542239
10 2 0.366514 0.998385 0.522165
11 2 0.288836 0.121745 0.603493
12 1 0.282828 0.110325 0.572758
141 1 0.0621431 0.438839 0.565319
145 1 0.0418608 0.420594 0.546167
148 1 0.075561 0.425542 0.592782
149 1 0.0889789 0.412245 0.620244
142 1 0.0690075 0.470381 0.557008
143 1 0.0758719 0.501924 0.548697
91 1 0.0913102 0.650357 0.547382
92 1 0.109295 0.66894 0.568413
93 1 0.12728 0.687524 0.589444
94 2 0.145265 0.706108 0.610475
5 1 0.236011 0.972454 0.622536
6 1 0.262112 0.97764 0.602461
7 1 0.288212 0.982826 0.582387
8 1 0.314313 0.988012 0.562313
150 2 0.102397 0.398948 0.647707
62 1 0.570645 0.437376 0.702387
63 1 0.597497 0.419709 0.711217
64 1 0.624349 0.402042 0.720047
87 2 0.621633 0.449371 0.721957
61 2 0.543793 0.455043 0.693558
1 2 0.131609 0.951709 0.702832
2 1 0.157709 0.956895 0.682758
3 1 0.18381 0.962081 0.662684
4 1 0.20991 0.967268 0.64261
162 1 0.307911 0.298176 0.804709
163 1 0.311765 0.286313 0.773797
164 2 0.315618 0.274449 0.742886
67 1 0.704904 0.349042 0.746537
68 1 0.731756 0.331375 0.755367
69 1 0.758608 0.313708 0.764197
70 2 0.78546 0.296041 0.773027
65 1 0.6512 0.384375 0.728877
66 1 0.678052 0.366708 0.737707
81 1 0.680871 0.399107 0.784916
82 1 0.713806 0.40423 0.784491
85 1 0.661125 0.415861 0.76393
86 1 0.641379 0.432616 0.742943
88 1 0.667682 0.377229 0.806329
83 1 0.74674 0.409353 0.784065
84 2 0.779675 0.414476 0.783639
169 1 0.243175 0.325177 0.858167
170 2 0.212734 0.332745 0.86944
161 1 0.304058 0.31004 0.83562
165 1 0.330647 0.314334 0.855259
166 1 0.357236 0.318629 0.874897
168 1 0.273617 0.317608 0.846894
167 2 0.383824 0.322924 0.894535
89 1 0.654494 0.355351 0.827741
90 2 0.641305 0.333473 0.849153
30 2 0.443985 0.250563 0.999151
ITEM: TIMESTEP
77
ITEM: NUMBER OF ATOMS
170
ITEM: BOX BOUNDS pp pp pp
0.0000000000000000e+00 3.0000000000000000e+01
0.0000000000000000e+00 3.0000000000000000e+01
0.0000000000000000e+00 3.0000000000000000e+01
ITEM: ATOMS id type xs ys zs
26 1 0.418476 0.143401 0.0754504
27 1 0.424568 0.168993 0.0572292
28 1 0.43066 0.194584 0.0390082
29 1 0.436752 0.220176 0.0207874
115 1 0.424376 0.219316 0.083798
116 1 0.443909 0.239781 0.0688423
117 2 0.455301 0.251719 0.0601173
40 2 0.130389 0.588532 0.0942674
159 1 0.336903 0.967265 0.0749096
160 2 0.344856 0.956448 0.061941
151 1 0.309633 0.0043506 0.119373
152 1 0.326167 0.0284122 0.132475
153 1 0.342702 0.0524739 0.145577
154 2 0.352347 0.0665096 0.153219
21 2 0.390554 0.0261072 0.158964
22 1 0.394108 0.0410354 0.148335
23 1 0.4002 0.0666266 0.130114
24 1 0.406292 0.0922181 0.111893
25 1 0.412384 0.11781 0.0936715
112 1 0.416569 0.17192 0.11145
113 1 0.428294 0.144988 0.124147
114 2 0.435134 0.129278 0.131553
119 1 0.342327 0.211785 0.103273
120 2 0.324093 0.215559 0.10459
111 1 0.404843 0.198852 0.0987537
118 1 0.373585 0.205318 0.101013
36 1 0.205058 0.534998 0.16288
38 1 0.163383 0.564878 0.124584
39 1 0.142545 0.579817 0.105437
37 1 0.18422 0.549938 0.143732
76 1 0.60741 0.696558 0.165138
77 2 0.613312 0.701361 0.148092
121 1 0.753484 0.808662 0.175543
128 1 0.764463 0.784769 0.157305
129 1 0.775442 0.760877 0.139067
130 2 0.781844 0.746939 0.128428
125 1 0.72437 0.820809 0.170177
126 1 0.695256 0.832957 0.164811
127 2 0.678272 0.840042 0.161679
156 1 0.249295 0.993313 0.137634
157 2 0.231696 0.990093 0.142958
155 1 0.279464 0.998832 0.128503
158 1 0.323268 0.985808 0.0971414
110 2 0.800423 0.1496 0.26911
140 2 0.275552 0.288933 0.247945
131 1 0.348565 0.327318 0.242522
135 1 0.354117 0.353659 0.259824
138 1 0.320302 0.312459 0.244621
139 1 0.292039 0.2976 0.24672
132 1 0.371275 0.315838 0.22312
133 1 0.393986 0.304356 0.203719
134 2 0.407234 0.297659 0.192402
33 1 0.267572 0.49018 0.220323
34 1 0.246734 0.505119 0.201175
35 1 0.225896 0.520059 0.182028
31 2 0.300565 0.466525 0.25064
32 1 0.28841 0.47524 0.239471
79 1 0.591714 0.619293 0.24306
80 2 0.593038 0.601561 0.24874
71 1 0.587177 0.680087 0.223578
72 1 0.574791 0.702249 0.243058
73 1 0.562406 0.72441 0.262538
75 1 0.597293 0.688323 0.194358
78 1 0.589445 0.64969 0.233319
122 1 0.77162 0.820406 0.199147
123 1 0.789756 0.832151 0.222751
124 2 0.800335 0.839002 0.23652
19 1 0.241613 0.0319842 0.361918
20 2 0.238248 0.0255891 0.344707
109 1 0.809902 0.154397 0.284459
101 1 0.842397 0.170842 0.337086
102 1 0.87439 0.17016 0.337002
103 1 0.906383 0.169478 0.336919
108 1 0.82615 0.162619 0.310773
104 2 0.925045 0.16908 0.33687
136 1 0.35967 0.379999 0.277126
137 2 0.362907 0.395364 0.287219
74 2 0.555181 0.737338 0.273902
16 1 0.258916 0.0648739 0.450435
17 1 0.253148 0.0539106 0.420929
18 1 0.24738 0.0429474 0.391424
41 2 0.299602 0.160027 0.422194
42 1 0.31818 0.160119 0.420382
43 1 0.350029 0.160277 0.417276
44 1 0.381878 0.160435 0.41417
45 1 0.413727 0.160593 0.411063
46 1 0.445577 0.160751 0.407957
47 1 0.477426 0.160908 0.404851
48 1 0.509275 0.161066 0.401744
49 1 0.541124 0.161224 0.398638
50 2 0.559702 0.161316 0.396826
105 1 0.826653 0.179746 0.363483
106 1 0.810908 0.188651 0.389881
107 2 0.801722 0.193845 0.405278
14 1 0.270452 0.0868004 0.509447
15 1 0.264684 0.0758372 0.479941
13 1 0.276219 0.0977636 0.538952
146 1 0.0232001 0.403808 0.528545
147 2 0.0118419 0.393589 0.517821
144 2 0.079167 0.517064 0.544707
98 1 0.099679 0.619999 0.541691
99 1 0.108048 0.589642 0.535999
100 2 0.112928 0.571933 0.532679
51 2 0.673138 0.572883 0.494465
52 1 0.667887 0.590691 0.49252
53 1 0.658886 0.621218 0.489186
95 1 0.0656762 0.662874 0.532883
96 1 0.0400421 0.675392 0.518384
97 2 0.0250887 0.682692 0.509926
56 1 0.631883 0.712799 0.479184
54 1 0.649885 0.651745 0.485852
55 1 0.640884 0.682272 0.482518
57 1 0.622882 0.743326 0.47585
58 1 0.613881 0.773854 0.472516
59 1 0.60488 0.80438 0.469182
60 2 0.599629 0.822188 0.467237
9 1 0.336761 0.992473 0.545048
10 2 0.351378 0.995377 0.533806
11 2 0.285351 0.115122 0.585669
12 1 0.281987 0.108727 0.568458
141 1 0.0621431 0.438839 0.565319
145 1 0.0426716 0.421323 0.546932
148 1 0.0750248 0.426074 0.591684
149 1 0.0879066 0.413309 0.618049
142 1 0.0687329 0.46912 0.55734
143 1 0.0753228 0.4994 0.549361
91 1 0.0913103 0.650357 0.547382
92 1 0.108576 0.668197 0.567572
93 1 0.125841 0.686037 0.587761
94 2 0.135913 0.696444 0.599539
5 1 0.236533 0.972557 0.622134
6 1 0.26159 0.977536 0.602863
7 1 0.286647 0.982515 0.583591
8 1 0.311704 0.987494 0.564319
150 2 0.0954201 0.405862 0.633428
62 1 0.574402 0.434904 0.703623
63 1 0.60018 0.417943 0.7121
64 1 0.625959 0.400983 0.720577
87 2 0.6319 0.440659 0.732869
61 2 0.559365 0.444797 0.698678
1 2 0.146745 0.954717 0.691191
2 1 0.161362 0.957621 0.679949
3 1 0.186419 0.9626 0.660678
4 1 0.211476 0.967579 0.641406
162 1 0.307757 0.298651 0.805945
163 1 0.311456 0.287262 0.77627
164 2 0.313614 0.280618 0.75896
67 1 0.703294 0.350101 0.746008
68 1 0.729072 0.33314 0.754485
69 1 0.754851 0.31618 0.762962
70 2 0.769888 0.306286 0.767906
65 1 0.651737 0.384022 0.729054
66 1 0.677516 0.367062 0.737531
81 1 0.680871 0.399107 0.784916
82 1 0.712488 0.404025 0.784508
85 1 0.661915 0.415192 0.764769
86 1 0.642959 0.431277 0.744621
88 1 0.66821 0.378103 0.805473
83 1 0.744105 0.408943 0.784099
84 2 0.762549 0.411812 0.783861
169 1 0.245609 0.324571 0.857264
170 2 0.228562 0.32881 0.863579
161 1 0.304058 0.31004 0.83562
165 1 0.329584 0.314162 0.854473
166 1 0.35511 0.318285 0.873326
168 1 0.274834 0.317305 0.846442
167 2 0.369999 0.320691 0.884325
89 1 0.65555 0.3571 0.826029
90 2 0.648163 0.344848 0.83802
30 2 0.440305 0.235104 0.0101587
