LAMMPS data file via write_data, version 29 Aug 2024, timestep = 0, units = lj

10 atoms
2 atom types
9 bonds
2 bond types
6 angles
2 angle types

0 30 xlo xhi
0 30 ylo yhi
0 30 zlo zhi

Masses

1 1
2 0.1

Pair Coeffs # lj/cut

1 -0.75 0.67
2 4 0.2

Bond Coeffs # harmonic

1 300 0.96
2 300 0.56

Angle Coeffs # harmonic

1 300 120
2 300 180

Atoms # molecular

1 1 1 28.517710854540443 17.166332261248645 4.546314806000477 0 0 0
2 1 1 28.272218563527776 16.225492571929696 4.779883241486898 0 0 0
3 1 1 28.026726272515113 15.284652882610745 5.01345167697332 0 0 0
4 1 2 27.781233981502446 14.343813193291794 5.247020112459741 0 0 0
5 1 1 28.2696816800572 17.915083466645825 5.160976632553442 0 0 0
6 1 1 28.021652505573957 18.66383467204301 5.775638459106409 0 0 0
7 1 2 27.773623331090715 19.41258587744019 6.390300285659375 0 0 0
8 1 1 29.011232320036353 17.358420745170413 3.698084543961089 0 0 0
9 1 1 29.50475378553226 17.55050922909218 2.849854281921702 0 0 0
10 1 2 29.99827525102817 17.74259771301395 2.0016240198823145 0 0 0

Velocities

1 0 0 0
2 0 0 0
3 0 0 0
4 0 0 0
5 0 0 0
6 0 0 0
7 0 0 0
8 0 0 0
9 0 0 0
10 0 0 0

Bonds

1 1 1 2
2 1 1 5
3 1 1 8
4 1 2 3
5 2 3 4
6 1 5 6
7 2 6 7
8 1 8 9
9 2 9 10

Angles

1 1 2 1 5
2 1 5 1 8
3 1 8 1 2
4 2 1 2 3
5 2 1 5 6
6 2 1 8 9
