LAMMPS data file via write_data, version 29 Aug 2024, timestep = 0, units = lj

40 atoms
2 atom types
36 bonds
2 bond types
24 angles
2 angle types

0 30 xlo xhi
0 30 ylo yhi
0 30 zlo zhi

Masses

1 1
2 0.1

Pair Coeffs # lj/cut

1 -0.75 0.67
2 4 0.2

Bond Coeffs # harmonic

1 300 0.96
2 300 0.56

Angle Coeffs # harmonic

1 300 120
2 300 180

Atoms # molecular

1 1 1 13.989055465901762 4.055215410913907 26.005411230030195 0 0 0
2 1 1 14.260029315646445 4.966737554629415 26.31476629184563 0 0 0
3 1 1 14.531003165391128 5.878259698344921 26.624121353661064 0 0 0
4 1 2 14.801977015135812 6.789781842060429 26.9334764154765 0 0 0
5 1 1 13.762975415234168 3.900269658867556 25.043727485437966 0 0 0
6 1 1 13.536895364566575 3.7453239068212048 24.08204374084574 0 0 0
7 1 2 13.310815313898981 3.5903781547748537 23.120359996253512 0 0 0
8 1 1 13.944161666824673 3.2986390192447503 26.65773991280699 0 0 0
9 1 1 13.899267867747584 2.542062627575594 27.31006859558378 0 0 0
10 1 2 13.854374068670495 1.785486235906438 27.962397278360573 0 0 0
11 2 1 11.298680380591508 26.92115660147795 3.8790010399553 0 0 0
12 2 1 11.957808987941512 27.053789364134417 4.619242912077485 0 0 0
13 2 1 12.616937595291514 27.18642212679088 5.359484784199671 0 0 0
14 2 2 13.276066202641518 27.319054889447347 6.099726656321856 0 0 0
15 2 1 10.782540072468038 26.066985580026884 3.8161755002166506 0 0 0
16 2 1 10.266399764344566 25.212814558575822 3.7533499604780016 0 0 0
17 2 2 9.750259456221094 24.358643537124756 3.690524420739352 0 0 0
18 2 1 11.155692081364975 27.64269486027255 3.201584707571764 0 0 0
19 2 1 11.012703782138443 28.364233119067148 2.5241683751882276 0 0 0
20 2 2 10.86971548291191 29.085771377861747 1.8467520428046917 0 0 0
21 3 1 8.608305295281255 19.787097792042 11.752590849880406 0 0 0
22 3 1 8.800681639113712 19.26294468149979 12.582202119718623 0 0 0
23 3 1 8.99305798294617 18.738791570957577 13.41181338955684 0 0 0
24 3 2 9.185434326778628 18.214638460415365 14.241424659395058 0 0 0
25 3 1 9.302764531322117 19.86354452368674 11.037162120586999 0 0 0
26 3 1 9.997223767362978 19.93999125533148 10.32173339129359 0 0 0
27 3 2 10.69168300340384 20.016437986976218 9.606304662000182 0 0 0
28 3 1 7.721469715407936 20.234804170939473 11.638408309335595 0 0 0
29 3 1 6.834634135534618 20.682510549836945 11.524225768790785 0 0 0
30 3 2 5.947798555661299 21.130216928734416 11.410043228245975 0 0 0
31 4 1 5.917930209971 12.653038982606045 19.62618065980551 0 0 0
32 4 1 6.312917572309228 11.926248820432262 20.18810685047515 0 0 0
33 4 1 6.707904934647456 11.199458658258479 20.750033041144796 0 0 0
34 4 2 7.102892296985685 10.472668496084697 21.311959231814438 0 0 0
35 4 1 5.940012130888968 12.58199448142729 18.628974027446482 0 0 0
36 4 1 5.962094051806938 12.510949980248538 17.631767395087454 0 0 0
37 4 2 5.984175972724907 12.439905479069784 16.634560762728423 0 0 0
38 4 1 5.500860926714802 13.45087364595858 20.061461101494896 0 0 0
39 4 1 5.083791643458605 14.248708309311118 20.49674154318428 0 0 0
40 4 2 4.6667223602024075 15.046542972663653 20.932021984873668 0 0 0

Velocities

1 0 0 0
2 0 0 0
3 0 0 0
4 0 0 0
5 0 0 0
6 0 0 0
7 0 0 0
8 0 0 0
9 0 0 0
10 0 0 0
11 0 0 0
12 0 0 0
13 0 0 0
14 0 0 0
15 0 0 0
16 0 0 0
17 0 0 0
18 0 0 0
19 0 0 0
20 0 0 0
21 0 0 0
22 0 0 0
23 0 0 0
24 0 0 0
25 0 0 0
26 0 0 0
27 0 0 0
28 0 0 0
29 0 0 0
30 0 0 0
31 0 0 0
32 0 0 0
33 0 0 0
34 0 0 0
35 0 0 0
36 0 0 0
37 0 0 0
38 0 0 0
39 0 0 0
40 0 0 0

Bonds

1 1 1 2
2 1 1 5
3 1 1 8
4 1 2 3
5 2 3 4
6 1 5 6
7 2 6 7
8 1 8 9
9 2 9 10
10 1 11 12
11 1 11 15
12 1 11 18
13 1 12 13
14 2 13 14
15 1 15 16
16 2 16 17
17 1 18 19
18 2 19 20
19 1 21 22
20 1 21 25
21 1 21 28
22 1 22 23
23 2 23 24
24 1 25 26
25 2 26 27
26 1 28 29
27 2 29 30
28 1 31 32
29 1 31 35
30 1 31 38
31 1 32 33
32 2 33 34
33 1 35 36
34 2 36 37
35 1 38 39
36 2 39 40

Angles

1 1 2 1 5
2 1 5 1 8
3 1 8 1 2
4 2 1 2 3
5 2 1 5 6
6 2 1 8 9
7 1 12 11 15
8 1 15 11 18
9 1 18 11 12
10 2 11 12 13
11 2 11 15 16
12 2 11 18 19
13 1 22 21 25
14 1 25 21 28
15 1 28 21 22
16 2 21 22 23
17 2 21 25 26
18 2 21 28 29
19 1 32 31 35
20 1 35 31 38
21 1 38 31 32
22 2 31 32 33
23 2 31 35 36
24 2 31 38 39
