LAMMPS data file via write_data, version 29 Aug 2024, timestep = 0, units = lj

170 atoms
2 atom types
153 bonds
2 bond types
116 angles
2 angle types

0 50 xlo xhi
0 50 ylo yhi
0 50 zlo zhi

Masses

1 1
2 0.1

Pair Coeffs # lj/cut

1 -0.75 0.67
2 4 0.2

Bond Coeffs # harmonic

1 300 0.96
2 300 0.56

Angle Coeffs # harmonic

1 300 120
2 300 180

Atoms # molecular

1 1 2 48.63423340045774 32.84433237068302 6.526133383645231 0 0 0
2 1 1 48.38874110944507 31.903492681364067 6.759701819131653 0 0 0
3 1 1 48.14324881843241 30.96265299204512 6.993270254618074 0 0 0
4 1 1 47.897756527419745 30.021813302726166 7.226838690104495 0 0 0
5 1 1 47.65226423640708 29.080973613407217 7.460407125590916 0 0 0
6 1 1 47.40677194539441 28.140133924088268 7.693975561077338 0 0 0
7 1 1 47.161279654381744 27.19929423476932 7.9275439965637595 0 0 0
8 1 1 46.91578736336908 26.258454545450366 8.161112432050182 0 0 0
9 1 1 46.67029507235642 25.317614856131417 8.394680867536602 0 0 0
10 1 2 46.42480278134375 24.376775166812468 8.628249303023024 0 0 0
11 2 2 49.338290768170666 11.562232946557737 31.927829544630228 0 0 0
12 2 1 49.45309446783741 11.532614956121224 32.9207761117653 0 0 0
13 2 1 49.56789816750415 11.50299696568471 33.91372267890038 0 0 0
14 2 1 49.68270186717089 11.473378975248197 34.906669246035456 0 0 0
15 2 1 49.797505566837636 11.443760984811684 35.89961581317053 0 0 0
16 2 1 49.91230926650437 11.41414299437517 36.892562380305606 0 0 0
17 2 1 0.027112966171117137 11.384525003938657 37.88550894744068 1 0 0
18 2 1 0.14191666583786144 11.354907013502144 38.878455514575755 1 0 0
19 2 1 0.25672036550459865 11.325289023065631 39.87140208171083 1 0 0
20 2 2 0.37152406517134295 11.295671032629118 40.864348648845905 1 0 0
21 3 2 7.499497499892147 26.481432827402443 31.674040408279197 0 0 0
22 3 1 7.848375583625594 27.313841215420442 31.243482214479855 0 0 0
23 3 1 8.19725366735904 28.14624960343844 30.81292402068051 0 0 0
24 3 1 8.546131751092487 28.97865799145644 30.382365826881163 0 0 0
25 3 1 8.895009834825935 29.81106637947444 29.951807633081817 0 0 0
26 3 1 9.24388791855938 30.643474767492435 29.521249439282474 0 0 0
27 3 1 9.592766002292828 31.475883155510434 29.09069124548313 0 0 0
28 3 1 9.941644086026274 32.30829154352843 28.660133051683783 0 0 0
29 3 1 10.29052216975972 33.140699931546436 28.229574857884437 0 0 0
30 3 2 10.639400253493168 33.97310831956443 27.799016664085094 0 0 0
31 4 2 29.954408179147105 1.3864702903212969 3.8893368887022275 0 0 0
32 4 1 30.37234138673178 1.6680671959508468 3.025603702621104 0 0 0
33 4 1 30.790274594316454 1.9496641015803966 2.1618705165399805 0 0 0
34 4 1 31.208207801901125 2.2312610072099464 1.2981373304588573 0 0 0
35 4 1 31.6261410094858 2.5128579128394963 0.4344041443777338 0 0 0
36 4 1 32.044074217070474 2.794454818469046 49.57067095829661 0 0 -1
37 4 1 32.46200742465515 3.076051724098596 48.70693777221549 0 0 -1
38 4 1 32.87994063223982 3.3576486297281454 47.84320458613436 0 0 -1
39 4 1 33.29787383982449 3.6392455353576953 46.97947140005324 0 0 -1
40 4 2 33.715807047409164 3.9208424409872453 46.115738213972115 0 0 -1
41 5 2 42.51747428445291 41.82392231077514 10.529837620908225 0 0 0
42 5 1 42.5466189598747 42.628788011261136 9.937096706110076 0 0 0
43 5 1 42.57576363529648 43.433653711747134 9.344355791311928 0 0 0
44 5 1 42.60490831071827 44.23851941223313 8.751614876513779 0 0 0
45 5 1 42.634052986140055 45.04338511271913 8.158873961715631 0 0 0
46 5 1 42.663197661561846 45.84825081320512 7.566133046917482 0 0 0
47 5 1 42.69234233698363 46.65311651369112 6.973392132119335 0 0 0
48 5 1 42.72148701240542 47.457982214177115 6.380651217321185 0 0 0
49 5 1 42.7506316878272 48.26284791466311 5.787910302523038 0 0 0
50 5 2 42.77977636324899 49.06771361514911 5.195169387724889 0 0 0
51 6 2 46.85411073756705 31.568945460879313 33.15134645340224 0 0 0
52 6 1 46.463507695523916 32.363666914982176 33.61593990356624 0 0 0
53 6 1 46.07290465348079 33.15838836908503 34.08053335373024 0 0 0
54 6 1 45.68230161143766 33.953109823187894 34.54512680389424 0 0 0
55 6 1 45.291698569394526 34.74783127729076 35.00972025405824 0 0 0
56 6 1 44.9010955273514 35.54255273139361 35.47431370422224 0 0 0
57 6 1 44.51049248530827 36.337274185496476 35.938907154386236 0 0 0
58 6 1 44.11988944326514 37.13199563959934 36.40350060455024 0 0 0
59 6 1 43.72928640122201 37.926717093702194 36.868094054714234 0 0 0
60 6 2 43.33868335917888 38.72143854780506 37.33268750487824 0 0 0
61 7 2 8.07941195214955 21.46331665091223 23.861971831976696 0 0 0
62 7 1 9.079402276109757 21.45921658934874 23.86356603432779 0 0 0
63 7 1 10.079392600069964 21.455116527785247 23.865160236678882 0 0 0
64 7 1 11.07938292403017 21.451016466221752 23.866754439029975 0 0 0
65 7 1 12.079373247990377 21.44691640465826 23.86834864138107 0 0 0
66 7 1 13.079363571950585 21.44281634309477 23.86994284373216 0 0 0
67 7 1 14.079353895910792 21.438716281531278 23.871537046083255 0 0 0
68 7 1 15.079344219870999 21.434616219967783 23.873131248434348 0 0 0
69 7 1 16.079334543831205 21.43051615840429 23.87472545078544 0 0 0
70 7 2 17.079324867791414 21.4264160968408 23.876319653136534 0 0 0
71 8 1 47.529518090900744 28.610553768747742 7.577191343334127 0 0 0
72 8 1 47.28402579988808 27.669714079428793 7.8107597788205485 0 0 0
73 8 1 47.03853350887541 26.728874390109844 8.04432821430697 0 0 0
74 8 2 46.79304121786275 25.78803470079089 8.27789664979339 0 0 0
75 8 1 47.2814889164175 29.359304974144923 8.191853169887093 0 0 0
76 8 1 47.03345974193426 30.108056179542107 8.80651499644006 0 0 0
77 8 2 46.785430567451016 30.856807384939287 9.421176822993026 0 0 0
78 8 1 48.023039556396654 28.80264225266951 6.72896108129474 0 0 0
79 8 1 48.516561021892564 28.99473073659128 5.880730819255353 0 0 0
80 8 2 49.010082487388466 29.186819220513048 5.032500557215965 0 0 0
81 9 1 49.854907416671004 11.428951989593427 36.396089096738066 0 0 0
82 9 1 49.96971111633775 11.399333999156914 37.389035663873145 0 0 0
83 9 1 0.08451481600448574 11.3697160087204 38.381982231008216 1 0 0
84 9 2 0.19931851567123005 11.340098018283888 39.374928798143294 1 0 0
85 9 1 49.590801670234754 10.60279244019724 35.89843002303314 0 0 0
86 9 1 49.3266959237985 9.776632890801052 35.400770949328226 0 0 0
87 9 2 49.06259017736225 8.950473341404864 34.9031118756233 0 0 0
88 9 1 0.004209463440510319 12.284729529426128 35.90080160330791 1 0 0
89 9 1 0.15351151021002352 13.14050706925883 35.40551410987776 1 0 0
90 9 2 0.3028135569795296 13.99628460909153 34.9102266164476 1 0 0
91 10 1 9.069448876692658 30.227270573483437 29.736528536182146 0 0 0
92 10 1 9.418326960426104 31.059678961501437 29.3059703423828 0 0 0
93 10 1 9.767205044159551 31.892087349519436 28.875412148583454 0 0 0
94 10 2 10.116083127892997 32.72449573753743 28.44485395478411 0 0 0
95 10 1 8.176649157856385 30.23373833870594 30.186887093399502 0 0 0
96 10 1 7.283849439020111 30.240206103928443 30.637245650616855 0 0 0
97 10 2 6.391049720183838 30.246673869150946 31.08760420783421 0 0 0
98 10 1 9.613370511795484 29.388394420242935 29.716728172764135 0 0 0
99 10 1 10.15729214689831 28.549518267002433 29.696927809346125 0 0 0
100 10 2 10.701213782001137 27.71064211376193 29.677127445928114 0 0 0
101 11 1 31.835107613278137 2.653656365654271 0.0025375513371720683 0 0 0
102 11 1 32.25304082086281 2.935253271283821 49.13880436525605 0 0 -1
103 11 1 32.67097402844748 3.2168501769133706 48.27507117917492 0 0 -1
104 11 2 33.088907236032156 3.4984470825429206 47.4113379930938 0 0 -1
105 11 1 30.849704877508422 2.7564030090521143 0.1381125328346511 0 0 0
106 11 1 29.864302141738712 2.8591496524499576 0.2736875143321302 0 0 0
107 11 2 28.878899405968998 2.961896295847801 0.40926249582960944 0 0 0
108 11 1 32.402577141463176 2.269312816626878 0.7306957559208164 0 0 0
109 11 1 32.97004666964821 1.884969267599485 1.4588539605044608 0 0 0
110 11 2 33.537516197833256 1.5006257185720917 2.187012165088105 0 0 0
111 12 1 42.64862532385095 45.445817962962124 7.862503504316557 0 0 0
112 12 1 42.67776999927274 46.25068366344812 7.269762589518408 0 0 0
113 12 1 42.706914674694524 47.05554936393412 6.67702167472026 0 0 0
114 12 2 42.736059350116314 47.86041506442011 6.084280759922112 0 0 0
115 12 1 43.45827802138254 45.18096088676023 8.38621071122286 0 0 0
116 12 1 44.26793071891414 44.91610381055835 8.909917918129164 0 0 0
117 12 2 45.07758341644573 44.651246734356455 9.433625125035467 0 0 0
118 12 1 41.80982795089757 44.90580933867802 7.931537212208402 0 0 0
119 12 1 40.97103057794419 44.36580071439391 8.000570920100246 0 0 0
120 12 2 40.13223320499081 43.82579209010981 8.069604627992092 0 0 0
121 13 1 45.096397048372964 35.145192004342185 35.24201697914024 0 0 0
122 13 1 44.70579400632983 35.93991345844505 35.70661042930424 0 0 0
123 13 1 44.31519096428671 36.734634912547904 36.17120387946824 0 0 0
124 13 2 43.924587922243575 37.52935636665077 36.63579732963224 0 0 0
125 13 1 44.83324238869122 34.93745092062957 34.29991864710388 0 0 0
126 13 1 44.57008772900947 34.72970983691695 33.357820315067514 0 0 0
127 13 2 44.30693306932773 34.52196875320434 32.415721983031155 0 0 0
128 13 1 45.75015475009784 34.55821163395194 35.7195218610126 0 0 0
129 13 1 46.40391245182272 33.97123126356169 36.19702674288496 0 0 0
130 13 2 47.05767015354759 33.38425089317145 36.67453162475732 0 0 0
131 14 1 12.579368409970481 21.444866373876515 23.869145742556615 0 0 0
132 14 1 13.579358733930688 21.440766312313023 23.870739944907708 0 0 0
133 14 1 14.579349057890894 21.43666625074953 23.8723341472588 0 0 0
134 14 2 15.579339381851103 21.432566189186037 23.873928349609894 0 0 0
135 14 1 12.082927179949461 22.31290666187225 23.866288549616918 0 0 0
136 14 1 11.58648594992844 23.180946949867987 23.863431356677225 0 0 0
137 14 2 11.09004471990742 24.048987237863724 23.860574163737528 0 0 0
138 14 1 12.075819316031295 20.58092614744427 23.87040873314522 0 0 0
139 14 1 11.572270222092108 19.716985921012025 23.87167172373382 0 0 0
140 14 2 11.068721128152921 18.853045694579784 23.872934714322422 0 0 0
141 15 1 18.732495149007296 37.04596936565171 31.60712850820605 0 0 0
142 15 1 17.87301780722103 37.549482930989434 31.5189650890522 0 0 0
143 15 1 17.013540465434758 38.05299649632717 31.430801669898358 0 0 0
144 15 2 16.15406312364849 38.556510061664895 31.34263825074451 0 0 0
145 15 1 18.745560623022573 36.15456264088407 32.06009577460374 0 0 0
146 15 1 18.75862609703785 35.26315591611644 32.51306304100143 0 0 0
147 15 2 18.77169157105313 34.371749191348805 32.966030307399116 0 0 0
148 15 1 19.578907016778285 37.43386252508161 31.242324660962204 0 0 0
149 15 1 20.425318884549277 37.821755684511515 30.877520813718363 0 0 0
150 15 2 21.271730752320266 38.209648843941416 30.512716966474517 0 0 0
151 16 1 21.008837419100495 45.5305028220315 31.160929883439525 0 0 0
152 16 1 21.09166047015852 45.17286216046355 32.091109166914855 0 0 0
153 16 1 21.174483521216548 44.8152214988956 33.02128845039019 0 0 0
154 16 2 21.257306572274572 44.457580837327654 33.95146773386552 0 0 0
155 16 1 20.14743872390921 45.936937750829124 30.85636636530903 0 0 0
156 16 1 19.286040028717927 46.343372679626746 30.551802847178532 0 0 0
157 16 2 18.424641333526644 46.749807608424376 30.247239329048035 0 0 0
158 16 1 21.787413063233753 45.48170855480183 30.53531411809469 0 0 0
159 16 1 22.56598870736701 45.432914287572146 29.909698352749857 0 0 0
160 16 2 23.344564351500267 45.38412002034247 29.28408258740502 0 0 0
161 17 1 21.74855096812758 27.89612132026633 0.1110297162602794 0 0 0
162 17 1 22.506125589226496 27.432383061916486 0.5704070352579497 0 0 0
163 17 1 23.26370021032541 26.96864480356664 1.02978435425562 0 0 0
164 17 2 24.021274831424325 26.504906545216794 1.4891616732532902 0 0 0
165 17 1 21.6413128435996 27.817362104884246 49.11994295384232 0 0 -1
166 17 1 21.53407471907162 27.73860288950216 48.128856191424354 0 0 -1
167 17 2 21.426836594543637 27.659843674120076 47.13776942900639 0 0 -1
168 17 1 21.09821447155665 28.438618793998263 0.6427391596805718 0 0 0
169 17 1 20.447877974985715 28.981116267730194 1.1744486031008643 0 0 0
170 17 2 19.797541478414782 29.523613741462125 1.706158046521157 0 0 0

Velocities

1 0 0 0
2 0 0 0
3 0 0 0
4 0 0 0
5 0 0 0
6 0 0 0
7 0 0 0
8 0 0 0
9 0 0 0
10 0 0 0
11 0 0 0
12 0 0 0
13 0 0 0
14 0 0 0
15 0 0 0
16 0 0 0
17 0 0 0
18 0 0 0
19 0 0 0
20 0 0 0
21 0 0 0
22 0 0 0
23 0 0 0
24 0 0 0
25 0 0 0
26 0 0 0
27 0 0 0
28 0 0 0
29 0 0 0
30 0 0 0
31 0 0 0
32 0 0 0
33 0 0 0
34 0 0 0
35 0 0 0
36 0 0 0
37 0 0 0
38 0 0 0
39 0 0 0
40 0 0 0
41 0 0 0
42 0 0 0
43 0 0 0
44 0 0 0
45 0 0 0
46 0 0 0
47 0 0 0
48 0 0 0
49 0 0 0
50 0 0 0
51 0 0 0
52 0 0 0
53 0 0 0
54 0 0 0
55 0 0 0
56 0 0 0
57 0 0 0
58 0 0 0
59 0 0 0
60 0 0 0
61 0 0 0
62 0 0 0
63 0 0 0
64 0 0 0
65 0 0 0
66 0 0 0
67 0 0 0
68 0 0 0
69 0 0 0
70 0 0 0
71 0 0 0
72 0 0 0
73 0 0 0
74 0 0 0
75 0 0 0
76 0 0 0
77 0 0 0
78 0 0 0
79 0 0 0
80 0 0 0
81 0 0 0
82 0 0 0
83 0 0 0
84 0 0 0
85 0 0 0
86 0 0 0
87 0 0 0
88 0 0 0
89 0 0 0
90 0 0 0
91 0 0 0
92 0 0 0
93 0 0 0
94 0 0 0
95 0 0 0
96 0 0 0
97 0 0 0
98 0 0 0
99 0 0 0
100 0 0 0
101 0 0 0
102 0 0 0
103 0 0 0
104 0 0 0
105 0 0 0
106 0 0 0
107 0 0 0
108 0 0 0
109 0 0 0
110 0 0 0
111 0 0 0
112 0 0 0
113 0 0 0
114 0 0 0
115 0 0 0
116 0 0 0
117 0 0 0
118 0 0 0
119 0 0 0
120 0 0 0
121 0 0 0
122 0 0 0
123 0 0 0
124 0 0 0
125 0 0 0
126 0 0 0
127 0 0 0
128 0 0 0
129 0 0 0
130 0 0 0
131 0 0 0
132 0 0 0
133 0 0 0
134 0 0 0
135 0 0 0
136 0 0 0
137 0 0 0
138 0 0 0
139 0 0 0
140 0 0 0
141 0 0 0
142 0 0 0
143 0 0 0
144 0 0 0
145 0 0 0
146 0 0 0
147 0 0 0
148 0 0 0
149 0 0 0
150 0 0 0
151 0 0 0
152 0 0 0
153 0 0 0
154 0 0 0
155 0 0 0
156 0 0 0
157 0 0 0
158 0 0 0
159 0 0 0
160 0 0 0
161 0 0 0
162 0 0 0
163 0 0 0
164 0 0 0
165 0 0 0
166 0 0 0
167 0 0 0
168 0 0 0
169 0 0 0
170 0 0 0

Bonds

1 2 1 2
2 1 2 3
3 1 3 4
4 1 4 5
5 1 5 6
6 1 6 7
7 1 7 8
8 1 8 9
9 2 9 10
10 2 11 12
11 1 12 13
12 1 13 14
13 1 14 15
14 1 15 16
15 1 16 17
16 1 17 18
17 1 18 19
18 2 19 20
19 2 21 22
20 1 22 23
21 1 23 24
22 1 24 25
23 1 25 26
24 1 26 27
25 1 27 28
26 1 28 29
27 2 29 30
28 2 31 32
29 1 32 33
30 1 33 34
31 1 34 35
32 1 35 36
33 1 36 37
34 1 37 38
35 1 38 39
36 2 39 40
37 2 41 42
38 1 42 43
39 1 43 44
40 1 44 45
41 1 45 46
42 1 46 47
43 1 47 48
44 1 48 49
45 2 49 50
46 2 51 52
47 1 52 53
48 1 53 54
49 1 54 55
50 1 55 56
51 1 56 57
52 1 57 58
53 1 58 59
54 2 59 60
55 2 61 62
56 1 62 63
57 1 63 64
58 1 64 65
59 1 65 66
60 1 66 67
61 1 67 68
62 1 68 69
63 2 69 70
64 1 71 72
65 1 71 75
66 1 71 78
67 1 72 73
68 2 73 74
69 1 75 76
70 2 76 77
71 1 78 79
72 2 79 80
73 1 81 82
74 1 81 85
75 1 81 88
76 1 82 83
77 2 83 84
78 1 85 86
79 2 86 87
80 1 88 89
81 2 89 90
82 1 91 92
83 1 91 95
84 1 91 98
85 1 92 93
86 2 93 94
87 1 95 96
88 2 96 97
89 1 98 99
90 2 99 100
91 1 101 102
92 1 101 105
93 1 101 108
94 1 102 103
95 2 103 104
96 1 105 106
97 2 106 107
98 1 108 109
99 2 109 110
100 1 111 112
101 1 111 115
102 1 111 118
103 1 112 113
104 2 113 114
105 1 115 116
106 2 116 117
107 1 118 119
108 2 119 120
109 1 121 122
110 1 121 125
111 1 121 128
112 1 122 123
113 2 123 124
114 1 125 126
115 2 126 127
116 1 128 129
117 2 129 130
118 1 131 132
119 1 131 135
120 1 131 138
121 1 132 133
122 2 133 134
123 1 135 136
124 2 136 137
125 1 138 139
126 2 139 140
127 1 141 142
128 1 141 145
129 1 141 148
130 1 142 143
131 2 143 144
132 1 145 146
133 2 146 147
134 1 148 149
135 2 149 150
136 1 151 152
137 1 151 155
138 1 151 158
139 1 152 153
140 2 153 154
141 1 155 156
142 2 156 157
143 1 158 159
144 2 159 160
145 1 161 162
146 1 161 165
147 1 161 168
148 1 162 163
149 2 163 164
150 1 165 166
151 2 166 167
152 1 168 169
153 2 169 170

Angles

1 2 1 2 3
2 2 2 3 4
3 2 3 4 5
4 2 4 5 6
5 2 5 6 7
6 2 6 7 8
7 2 7 8 9
8 2 8 9 10
9 2 11 12 13
10 2 12 13 14
11 2 13 14 15
12 2 14 15 16
13 2 15 16 17
14 2 16 17 18
15 2 17 18 19
16 2 18 19 20
17 2 21 22 23
18 2 22 23 24
19 2 23 24 25
20 2 24 25 26
21 2 25 26 27
22 2 26 27 28
23 2 27 28 29
24 2 28 29 30
25 2 31 32 33
26 2 32 33 34
27 2 33 34 35
28 2 34 35 36
29 2 35 36 37
30 2 36 37 38
31 2 37 38 39
32 2 38 39 40
33 2 41 42 43
34 2 42 43 44
35 2 43 44 45
36 2 44 45 46
37 2 45 46 47
38 2 46 47 48
39 2 47 48 49
40 2 48 49 50
41 2 51 52 53
42 2 52 53 54
43 2 53 54 55
44 2 54 55 56
45 2 55 56 57
46 2 56 57 58
47 2 57 58 59
48 2 58 59 60
49 2 61 62 63
50 2 62 63 64
51 2 63 64 65
52 2 64 65 66
53 2 65 66 67
54 2 66 67 68
55 2 67 68 69
56 2 68 69 70
57 1 72 71 75
58 1 75 71 78
59 1 78 71 72
60 2 71 72 73
61 2 71 75 76
62 2 71 78 79
63 1 82 81 85
64 1 85 81 88
65 1 88 81 82
66 2 81 82 83
67 2 81 85 86
68 2 81 88 89
69 1 92 91 95
70 1 95 91 98
71 1 98 91 92
72 2 91 92 93
73 2 91 95 96
74 2 91 98 99
75 1 102 101 105
76 1 105 101 108
77 1 108 101 102
78 2 101 102 103
79 2 101 105 106
80 2 101 108 109
81 1 112 111 115
82 1 115 111 118
83 1 118 111 112
84 2 111 112 113
85 2 111 115 116
86 2 111 118 119
87 1 122 121 125
88 1 125 121 128
89 1 128 121 122
90 2 121 122 123
91 2 121 125 126
92 2 121 128 129
93 1 132 131 135
94 1 135 131 138
95 1 138 131 132
96 2 131 132 133
97 2 131 135 136
98 2 131 138 139
99 1 142 141 145
100 1 145 141 148
101 1 148 141 142
102 2 141 142 143
103 2 141 145 146
104 2 141 148 149
105 1 152 151 155
106 1 155 151 158
107 1 158 151 152
108 2 151 152 153
109 2 151 155 156
110 2 151 158 159
111 1 162 161 165
112 1 165 161 168
113 1 168 161 162
114 2 161 162 163
115 2 161 165 166
116 2 161 168 169
