ITEM: TIMESTEP
62
ITEM: NUMBER OF ATOMS
100
ITEM: BOX BOUNDS pp pp pp
0.0000000000000000e+00 3.0000000000000000e+01
0.0000000000000000e+00 3.0000000000000000e+01
0.0000000000000000e+00 3.0000000000000000e+01
ITEM: ATOMS id type xs ys zs
37 2 0.555243 0.0615668 0.0112582
35 1 0.60517 0.0563612 0.00438863
36 1 0.573637 0.0596496 0.00872571
31 1 0.636702 0.0530731 5.08693e-05
38 1 0.654861 0.0407743 0.0233512
39 1 0.673022 0.0284755 0.0466514
40 2 0.683613 0.0213009 0.0602448
92 1 0.459213 0.543083 0.0169201
93 1 0.483454 0.528244 0.0316198
94 2 0.497595 0.519588 0.0401947
91 1 0.434971 0.557922 0.00222053
98 1 0.414161 0.575282 0.0192355
99 1 0.393351 0.592642 0.0362514
100 2 0.38121 0.602769 0.0461751
10 2 0.991388 0.58809 0.0814238
2 1 0.942735 0.542105 0.159018
3 1 0.934879 0.511999 0.166492
4 2 0.930297 0.494437 0.170852
1 1 0.95059 0.572211 0.151544
5 1 0.942653 0.59617 0.171213
8 1 0.966383 0.578357 0.124401
9 1 0.982176 0.584503 0.0972571
49 1 0.799289 0.874357 0.161667
50 2 0.783632 0.864276 0.162957
41 1 0.852973 0.908916 0.15725
45 1 0.878881 0.900441 0.174008
48 1 0.826131 0.891637 0.159459
42 1 0.853905 0.934671 0.138283
43 1 0.854838 0.960426 0.119316
44 2 0.855382 0.97545 0.108252
6 1 0.934716 0.62013 0.190883
7 2 0.930087 0.634107 0.202356
46 1 0.904791 0.891967 0.190766
47 2 0.919903 0.887022 0.200543
70 2 0.209961 0.357479 0.477487
61 1 0.251587 0.428897 0.477383
68 1 0.235474 0.401251 0.477423
69 1 0.219362 0.373605 0.477464
62 1 0.283586 0.428766 0.477434
63 1 0.315585 0.428635 0.477485
64 2 0.334251 0.428558 0.477515
65 1 0.235702 0.456675 0.477291
66 1 0.219817 0.484452 0.4772
67 2 0.210549 0.500655 0.477147
30 2 0.226353 0.535199 0.593094
21 1 0.181389 0.604545 0.594731
25 1 0.15282 0.604753 0.609142
26 1 0.12425 0.604961 0.623553
27 2 0.107585 0.60508 0.63196
22 1 0.192553 0.631182 0.580953
28 1 0.198795 0.577702 0.594097
29 1 0.216201 0.550859 0.593462
23 1 0.203716 0.657818 0.567176
24 2 0.210229 0.673356 0.559139
57 2 0.880174 0.685731 0.626961
72 1 0.347148 0.757031 0.629321
73 1 0.319645 0.773143 0.6265
74 2 0.303602 0.782542 0.624855
71 1 0.37465 0.740919 0.632143
78 1 0.401734 0.753332 0.620469
79 1 0.428819 0.765746 0.608795
80 2 0.44462 0.772985 0.601986
88 1 0.445091 0.909048 0.6032
89 1 0.470006 0.907486 0.583181
90 2 0.484539 0.906576 0.571501
87 2 0.348968 0.944208 0.598042
86 1 0.365047 0.936621 0.603728
81 1 0.420177 0.91061 0.623218
85 1 0.392612 0.923616 0.613473
16 1 0.980195 0.175704 0.696073
17 2 0.975266 0.160284 0.686782
18 1 0.00187587 0.255964 0.712073
15 1 0.988647 0.202142 0.711997
19 1 0.00665383 0.283349 0.696225
20 2 0.0094404 0.299323 0.686978
75 1 0.375067 0.712395 0.646637
76 1 0.375484 0.68387 0.661133
77 2 0.37573 0.66723 0.669588
51 1 0.901928 0.702904 0.70484
55 1 0.893507 0.696257 0.674694
56 1 0.885085 0.68961 0.644546
58 1 0.922848 0.684121 0.720121
52 1 0.889429 0.728334 0.719707
82 1 0.422827 0.899166 0.652983
83 1 0.425477 0.887722 0.682748
84 2 0.427023 0.881046 0.700111
12 1 0.000771735 0.227631 0.759695
13 1 0.00444536 0.226684 0.791468
14 2 0.00658831 0.226131 0.810003
11 1 0.997098 0.228579 0.727922
59 1 0.943768 0.665338 0.735402
60 2 0.955972 0.65438 0.744314
53 1 0.87693 0.753764 0.734573
54 2 0.869639 0.768599 0.743246
32 1 0.650076 0.0620839 0.972412
33 1 0.663449 0.0710948 0.944774
34 2 0.67125 0.0763511 0.928651
97 2 0.426106 0.551412 0.920291
95 1 0.43154 0.555402 0.970506
96 1 0.428109 0.552881 0.938791
