ITEM: TIMESTEP
0
ITEM: NUMBER OF ATOMS
515
ITEM: BOX BOUNDS pp pp pp
-1.7878070701931352e+02 1.7878070701931352e+02
-1.7878070701931352e+02 1.7878070701931352e+02
-1.7878070701931352e+02 1.7878070701931352e+02
ITEM: ATOMS id type xs ys zs
515 3 0.477365 0.0701494 0.000196101
373 3 0.0233678 0.741774 0.000847816
160 3 0.416899 0.820492 0.00250511
94 3 0.639916 0.0643187 0.00513091
273 3 0.739854 0.720831 0.0112991
504 3 0.625264 0.816149 0.00893305
386 3 0.326673 0.392278 0.018795
454 3 0.86708 0.0196361 0.0234972
95 3 0.235241 0.695545 0.0228721
69 3 0.314674 0.733446 0.0252788
380 3 0.139691 0.790267 0.024088
46 3 0.275706 0.790684 0.0300738
418 3 0.83358 0.973703 0.0282421
359 3 0.625419 0.418221 0.0350459
239 3 0.149435 0.556496 0.0333386
111 3 0.40429 0.893737 0.0347676
259 3 0.00919164 0.483967 0.0356059
102 3 0.46978 0.58815 0.0389832
498 3 0.515986 0.174573 0.0415887
227 3 0.492798 0.460406 0.0394707
427 3 0.517555 0.549774 0.0437561
452 3 0.967609 0.601002 0.0449434
409 3 0.907755 0.639796 0.045092
448 3 0.72914 0.659014 0.0433819
251 3 0.893779 0.745942 0.0465631
93 3 0.399667 0.204977 0.0507907
41 3 0.0786398 0.6987 0.0485978
407 3 0.345529 0.303805 0.0511408
17 3 0.949422 0.930865 0.0515216
24 3 0.12617 0.531389 0.0570933
172 3 0.322283 0.617603 0.0557354
125 3 0.427763 0.412034 0.0612216
453 3 0.364322 0.16321 0.064013
443 3 0.792483 0.256623 0.0665103
286 3 0.874895 0.364614 0.0638707
444 3 0.838083 0.660681 0.0659944
469 3 0.346266 0.684957 0.0696897
506 3 0.497764 0.920275 0.0676598
58 3 0.261601 0.727439 0.0720495
114 3 0.676202 0.928367 0.0712995
154 3 0.330181 0.347598 0.075401
383 3 0.944927 0.381037 0.0819686
281 3 0.351069 0.410489 0.0831463
101 3 0.518625 0.53621 0.0838621
156 3 0.963565 0.640631 0.0831488
250 3 0.368768 0.880532 0.0959656
378 3 0.338637 0.473618 0.102
200 3 0.984135 0.351467 0.10601
158 3 0.14509 0.530202 0.108195
371 3 0.970205 0.227352 0.112021
480 3 0.958044 0.837634 0.111937
113 3 0.137735 0.913138 0.110589
205 3 0.86629 0.731369 0.117614
416 3 0.35187 0.884757 0.116103
126 3 0.951839 0.564772 0.119151
45 3 0.417451 0.0945514 0.124548
288 3 0.482849 0.248594 0.124377
270 3 0.971356 0.574411 0.128133
496 3 0.40844 0.645275 0.12937
225 3 0.590201 0.516519 0.135671
231 3 0.163441 0.956098 0.135275
467 3 0.320351 0.146733 0.137281
473 3 0.270186 0.0114324 0.144511
365 3 0.489321 0.0198812 0.143955
27 3 0.461659 0.0968729 0.142176
119 3 0.670564 0.175352 0.144794
459 3 0.873394 0.13888 0.148186
484 3 0.761088 0.614039 0.146624
505 3 0.137781 0.681867 0.146754
236 3 0.135939 0.722684 0.146694
28 3 0.553942 0.0975873 0.149666
285 3 0.0466138 0.438933 0.149157
438 3 0.0685012 0.300241 0.155381
43 3 0.672775 0.337607 0.154207
245 3 0.334268 0.0452288 0.159914
122 3 0.659312 0.0598655 0.158948
71 3 0.41427 0.631175 0.159251
48 3 0.342161 0.698885 0.159994
190 3 0.948507 0.557575 0.163499
252 3 0.586235 0.844063 0.163831
193 3 0.388441 0.530444 0.167004
503 3 0.43429 0.11163 0.172465
312 3 0.603283 0.376817 0.170023
497 3 0.32269 0.455713 0.172756
75 3 0.695954 0.891842 0.181625
391 3 0.848055 0.253715 0.186749
354 3 0.836634 0.307086 0.195269
276 3 0.369989 0.402641 0.19559
181 3 0.289657 0.267103 0.197596
232 3 0.568785 0.568703 0.196248
80 3 0.719154 0.818361 0.198548
325 3 0.721182 0.900172 0.197625
87 3 0.0932276 0.876254 0.201529
268 3 0.333964 0.928435 0.200942
176 3 0.444954 0.344988 0.207819
249 3 0.50602 0.682288 0.206781
419 3 0.664991 0.5051 0.208202
235 3 0.216681 0.761064 0.210754
242 3 0.686309 0.800096 0.208299
330 3 0.733258 0.866259 0.21097
295 3 0.950626 0.17607 0.212664
153 3 0.44549 0.355995 0.213264
179 3 0.857259 0.954496 0.2137
294 3 0.177936 0.575547 0.219191
372 3 0.732912 0.0446375 0.221873
420 3 0.243585 0.927067 0.223246
433 3 0.843818 0.0460655 0.223587
368 3 0.264477 0.0661168 0.225208
320 3 0.162814 0.410378 0.227264
185 3 0.91311 0.640639 0.226637
141 3 0.166757 0.682586 0.22508
326 3 0.479683 0.0322026 0.228598
106 3 0.117514 0.049398 0.232325
256 3 0.44869 0.129186 0.233442
29 3 0.432333 0.229085 0.234817
138 3 0.260365 0.960388 0.23427
470 3 0.274834 0.134423 0.239587
143 3 0.377477 0.252052 0.242658
67 3 0.520472 0.57055 0.241302
180 3 0.650552 0.823124 0.2467
398 3 0.0754941 0.829728 0.246773
61 3 0.159345 0.110564 0.249641
313 3 0.576177 0.800396 0.250969
491 3 0.434874 0.919394 0.250895
90 3 0.030639 0.950452 0.247325
278 3 0.890644 0.060585 0.252786
135 3 0.573942 0.235631 0.253111
73 3 0.741079 0.311195 0.251974
129 3 0.875928 0.722155 0.253473
412 3 0.608969 0.945395 0.254818
440 3 0.413366 0.440725 0.257035
186 3 0.0955856 0.506828 0.256256
224 3 0.189847 0.764994 0.256059
323 3 0.459842 0.565494 0.260691
413 3 0.726032 0.426326 0.263733
209 3 0.614428 0.685266 0.264427
98 3 0.408569 0.815926 0.266449
304 3 0.170047 0.983297 0.264597
282 3 0.440118 0.0632045 0.277608
76 3 0.566919 0.203801 0.27725
475 3 0.0949565 0.934092 0.2798
430 3 0.650887 0.455066 0.285964
479 3 0.138484 0.499928 0.284522
36 3 0.790774 0.543005 0.283237
422 3 0.0577184 0.0736174 0.286917
31 3 0.583709 0.39753 0.286779
184 3 0.0886803 0.450068 0.288149
401 3 0.229124 0.879413 0.290132
414 3 0.558217 0.95218 0.289471
60 3 0.0834251 0.125382 0.291614
221 3 0.19654 0.245213 0.296515
51 3 0.469287 0.303046 0.294926
347 3 0.992919 0.985678 0.296366
131 3 0.297145 0.115684 0.301659
335 3 0.461081 0.394139 0.300863
302 3 0.339981 0.063087 0.302975
178 3 0.321146 0.505343 0.304805
310 3 0.233628 0.581026 0.303548
334 3 0.125606 0.0615997 0.306507
134 3 0.203874 0.514685 0.306335
175 3 0.208788 0.0985488 0.309897
331 3 0.775467 0.266455 0.312095
121 3 0.973601 0.30864 0.313718
82 3 0.503352 0.845441 0.321549
394 3 0.55493 0.707819 0.322029
162 3 0.0695571 0.0466666 0.326138
57 3 0.00262612 0.137224 0.327736
170 3 0.648371 0.164058 0.327837
208 3 0.354154 0.264255 0.329245
274 3 0.904314 0.811051 0.326938
329 3 0.310617 0.542353 0.32949
450 3 0.740446 0.667896 0.33082
44 3 0.764502 0.979016 0.330066
456 3 0.716747 0.375042 0.339136
63 3 0.329142 0.883462 0.341125
327 3 0.0493821 0.964499 0.337549
272 3 0.795542 0.679618 0.341211
307 3 0.759081 0.880665 0.341414
229 3 0.0709345 0.195416 0.348992
314 3 0.038046 0.439123 0.345321
287 3 0.475428 0.518495 0.348693
210 3 0.218638 0.655819 0.347351
306 3 0.383234 0.0168592 0.35222
228 3 0.383994 0.786598 0.353488
18 3 0.923121 0.887449 0.356524
149 3 0.64467 0.975329 0.354824
402 3 0.241868 0.0737406 0.358917
212 3 0.608078 0.958908 0.358899
83 3 0.2806 0.0418494 0.362262
222 3 0.522944 0.114617 0.364466
431 3 0.191167 0.947186 0.362078
478 3 0.877786 0.950816 0.362655
157 3 0.481778 0.238851 0.364738
446 3 0.0791548 0.354993 0.366871
493 3 0.00235238 0.536524 0.365127
124 3 0.375475 0.612564 0.364754
457 3 0.852881 0.377186 0.370581
155 3 0.264713 0.0298911 0.379542
88 3 0.0950941 0.2473 0.377691
461 3 0.364334 0.358861 0.377179
22 3 0.60454 0.498803 0.378033
337 3 4.24334e-05 0.713178 0.380945
341 3 0.816905 0.717164 0.383572
311 3 0.727518 0.392538 0.386363
345 3 0.0255821 0.957898 0.384858
258 3 0.69232 0.814684 0.389124
142 3 0.924676 0.0355444 0.395155
151 3 0.460802 0.697887 0.393399
492 3 0.791274 0.943321 0.395074
499 3 0.98117 0.526828 0.399168
163 3 0.404358 0.0498246 0.402219
421 3 0.0988697 0.702469 0.400967
32 3 0.893567 0.17513 0.404572
188 3 0.732094 0.297996 0.410814
291 3 0.492747 0.594301 0.410146
338 3 0.534985 0.493272 0.414509
247 3 0.0788259 0.827001 0.41251
97 3 0.45599 0.826049 0.412531
350 3 0.281757 0.48637 0.41845
260 3 0.427907 0.840925 0.419158
406 3 0.920679 0.858953 0.416692
66 3 0.875566 0.645589 0.420927
226 3 0.230559 0.0078196 0.424079
35 3 0.211121 0.307516 0.423978
500 3 0.81957 0.518441 0.429556
253 3 0.51544 0.0078202 0.434159
105 3 0.586792 0.210176 0.433338
451 3 0.0894539 0.451921 0.437137
133 3 0.159134 0.572466 0.435604
308 3 0.1375 0.957722 0.438613
39 3 0.0465293 0.0175784 0.439914
290 3 0.985504 0.360828 0.440858
315 3 0.802968 0.488513 0.439346
485 3 0.309331 0.929341 0.440652
130 3 0.115941 0.623279 0.445308
296 3 0.236943 0.296808 0.449659
374 3 0.249251 0.167814 0.453171
262 3 0.900947 0.211844 0.458377
269 3 0.231826 0.302877 0.458736
108 3 0.410324 0.312932 0.456165
432 3 0.44324 0.540278 0.456229
305 3 0.0842244 0.559259 0.458046
348 3 0.0290476 0.203812 0.461733
118 3 0.872682 0.159307 0.465084
237 3 0.477675 0.284969 0.469965
72 3 0.532807 0.889241 0.469372
85 3 0.159203 0.716634 0.471004
230 3 0.514688 0.364876 0.476597
132 3 0.988687 0.861098 0.475288
271 3 0.535564 0.223507 0.479609
78 3 0.892437 0.18043 0.482757
171 3 0.958256 0.409917 0.483032
441 3 0.983588 0.171386 0.489727
474 3 0.792915 0.527547 0.486291
342 3 0.691493 0.930118 0.487624
344 3 0.409422 0.163414 0.49658
389 3 0.15188 0.645475 0.497198
336 3 0.611356 0.0551853 0.499851
1 1 0.5 0.5 0.5
2 1 0.5075 0.5 0.5
4 1 0.5075 0.5 0.5
3 1 0.515 0.5 0.5
5 2 0.515 0.5 0.5
6 1 0.5 0.5075 0.5
7 1 0.5075 0.5075 0.5
9 1 0.5075 0.5075 0.5
8 1 0.515 0.5075 0.5
10 2 0.515 0.5075 0.5
11 1 0.5 0.515 0.5
12 1 0.5075 0.515 0.5
14 1 0.5075 0.515 0.5
13 1 0.515 0.515 0.5
15 2 0.515 0.515 0.5
217 3 0.208516 0.523919 0.499661
464 3 0.447597 0.762748 0.507571
399 3 0.509005 0.854496 0.506794
483 3 0.0181044 0.280628 0.511439
169 3 0.713033 0.948564 0.511195
74 3 0.924056 0.608527 0.520777
395 3 0.343052 0.667372 0.519001
319 3 0.682289 0.237194 0.524613
62 3 0.7243 0.314424 0.522421
177 3 0.808392 0.638456 0.525098
508 3 0.944713 0.783693 0.526875
91 3 0.799274 0.391298 0.53769
211 3 0.930681 0.956717 0.540942
164 3 0.090671 0.907749 0.543234
339 3 0.655854 0.940653 0.547325
482 3 0.575714 0.0320433 0.552449
351 3 0.894831 0.429021 0.550463
59 3 0.936134 0.606506 0.550609
509 3 0.194374 0.848072 0.552807
403 3 0.314034 0.97546 0.549377
390 3 0.400608 0.0267496 0.580225
300 3 0.841303 0.780721 0.577868
367 3 0.142969 0.883297 0.576859
392 3 0.688403 0.997595 0.576764
463 3 0.678713 0.124269 0.582225
199 3 0.859299 0.241006 0.583625
328 3 0.190249 0.518212 0.582692
19 3 0.10589 0.695043 0.583283
241 3 0.0116483 0.77251 0.581525
220 3 0.382489 0.487272 0.587981
410 3 0.861177 0.795299 0.585558
266 3 0.406141 0.0126489 0.589547
511 3 0.809509 0.410816 0.589889
283 3 0.750438 0.610197 0.588446
356 3 0.896527 0.929112 0.588262
147 3 0.257864 0.913821 0.59588
366 3 0.458866 0.168358 0.599223
139 3 0.370639 0.323651 0.603618
77 3 0.735114 0.060844 0.604623
264 3 0.18875 0.324425 0.604259
267 3 0.508402 0.712061 0.609468
361 3 0.953238 0.0790513 0.614401
137 3 0.288166 0.19799 0.616128
316 3 0.0909113 0.946845 0.617241
123 3 0.433607 0.627216 0.622144
26 3 0.942425 0.335136 0.624291
92 3 0.957911 0.603417 0.624942
104 3 0.782038 0.71343 0.624418
388 3 0.557201 0.874792 0.626534
340 3 0.884982 0.890143 0.626811
187 3 0.899621 0.927924 0.624188
487 3 0.187993 0.594968 0.627986
198 3 0.742883 0.62799 0.630384
439 3 0.490991 0.0786359 0.634344
404 3 0.385707 0.580867 0.633668
465 3 0.742767 0.679874 0.638772
299 3 0.461992 0.702126 0.637582
37 3 0.363854 0.297176 0.64236
161 3 0.103433 0.391958 0.640154
495 3 0.654288 0.617043 0.642257
263 3 0.94311 0.856169 0.639923
309 3 0.768786 0.986294 0.64058
455 3 0.918014 0.0559078 0.643168
265 3 0.773992 0.48918 0.643209
148 3 0.958756 0.805953 0.643699
357 3 0.924348 0.513039 0.648784
215 3 0.156339 0.589793 0.651157
321 3 0.62134 0.861942 0.654524
202 3 0.911352 0.0860151 0.655726
408 3 0.522833 0.257372 0.658113
369 3 0.069665 0.860216 0.65702
415 3 0.14428 0.910136 0.657783
25 3 0.566858 0.174015 0.666624
426 3 0.279672 0.452113 0.66517
146 3 0.689028 0.494298 0.663608
436 3 0.795063 0.626683 0.665639
49 3 0.0255786 0.899724 0.664478
292 3 0.321013 0.269749 0.66716
195 3 0.235592 0.587236 0.669786
489 3 0.0118846 0.744134 0.66826
381 3 0.847759 0.282303 0.673729
40 3 0.636726 0.455505 0.673117
462 3 0.24453 0.814284 0.671665
324 3 0.431975 0.195792 0.674702
206 3 0.731144 0.335317 0.675041
136 3 0.0363393 0.754071 0.674974
86 3 0.168347 0.412071 0.679841
192 3 0.889941 0.23768 0.693127
34 3 0.510842 0.713494 0.691629
437 3 0.399186 0.126239 0.695131
458 3 0.3619 0.450985 0.697737
99 3 0.214406 0.528452 0.69882
167 3 0.958794 0.449914 0.704445
21 3 0.307225 0.530595 0.709502
435 3 0.493766 0.726466 0.706063
275 3 0.84848 0.399221 0.713475
481 3 0.31781 0.434088 0.712357
352 3 0.630124 0.501084 0.713687
55 3 0.674213 0.500489 0.712111
429 3 0.692741 0.898002 0.716585
23 3 0.598639 0.325384 0.724944
38 3 0.137112 0.448844 0.721726
47 3 0.450335 0.78781 0.722874
30 3 0.574825 0.0763213 0.731575
203 3 0.784644 0.517447 0.730824
213 3 0.00711546 0.58956 0.731062
110 3 0.0355639 0.723135 0.731564
333 3 0.0465817 0.898241 0.729525
449 3 0.119806 0.579029 0.734857
468 3 0.289753 0.88652 0.733643
425 3 0.339676 0.94227 0.73358
145 3 0.581535 0.863256 0.737948
96 3 0.411105 0.443788 0.742515
84 3 0.539102 0.680058 0.742319
317 3 0.971383 0.0319955 0.747993
103 3 0.191413 0.0822721 0.747057
244 3 0.282093 0.143497 0.746316
159 3 0.426375 0.0776909 0.751259
424 3 0.390671 0.0121235 0.759704
434 3 0.823601 0.253749 0.759177
257 3 0.465364 0.373164 0.759963
297 3 0.415328 0.425999 0.75969
466 3 0.849314 0.426118 0.76119
423 3 0.210775 0.48883 0.761551
358 3 0.105187 0.876763 0.762458
65 3 0.925152 0.0258683 0.768422
54 3 0.901424 0.224833 0.765078
218 3 0.800051 0.463126 0.766043
112 3 0.339292 0.486212 0.765225
197 3 0.931458 0.0131357 0.771389
471 3 0.742383 0.23471 0.771019
510 3 0.0348606 0.901397 0.771036
140 3 0.0133607 0.553506 0.773616
393 3 0.666552 0.732836 0.775365
117 3 0.560061 0.938881 0.776395
400 3 0.694761 0.852548 0.779689
318 3 0.511937 0.12077 0.781679
254 3 0.913469 0.680061 0.780841
293 3 0.952579 0.00296216 0.7851
411 3 0.477318 0.284155 0.791671
488 3 0.562733 0.846658 0.788601
501 3 0.553472 0.20395 0.794233
387 3 0.888307 0.781924 0.794702
207 3 0.417628 0.0738858 0.7982
362 3 0.23125 0.625799 0.798293
116 3 0.413842 0.443375 0.802318
68 3 0.567778 0.640674 0.800459
322 3 0.589896 0.380425 0.804514
238 3 0.700525 0.723496 0.804733
243 3 0.873465 0.329137 0.80962
472 3 0.509986 0.328126 0.818604
384 3 0.647089 0.62931 0.816881
246 3 0.679819 0.713977 0.818116
115 3 0.330561 0.741882 0.815994
240 3 0.322317 0.187292 0.822872
301 3 0.220541 0.630263 0.823903
370 3 0.536433 0.834344 0.824774
127 3 0.574347 0.0563355 0.830091
289 3 0.399523 0.785079 0.829772
261 3 0.796767 0.257264 0.83298
396 3 0.852254 0.841187 0.832503
513 3 0.237422 0.359126 0.839039
150 3 0.532223 0.070497 0.843426
377 3 0.184238 0.494428 0.844966
100 3 0.0652732 0.0459243 0.849677
56 3 0.456876 0.719513 0.850301
166 3 0.303383 0.958877 0.84768
89 3 0.845264 0.345799 0.851254
397 3 0.876265 0.387687 0.852923
233 3 0.335106 0.118989 0.855905
284 3 0.00788248 0.480803 0.856491
152 3 0.859746 0.750274 0.855206
375 3 0.452989 0.391674 0.85969
385 3 0.311101 0.676972 0.864957
514 3 0.726777 0.942099 0.863776
502 3 0.682394 0.999278 0.863
447 3 0.00506017 0.0462825 0.869384
298 3 0.109487 0.152845 0.869844
191 3 0.922365 0.185213 0.868679
303 3 0.1088 0.609381 0.866911
379 3 0.3104 0.891407 0.872085
120 3 0.544515 0.670249 0.878739
50 3 0.88631 0.219009 0.882517
70 3 0.860701 0.796507 0.888404
363 3 0.903016 0.987142 0.889323
52 3 0.818863 0.631516 0.890791
81 3 0.00330208 0.49806 0.896383
428 3 0.407996 0.193366 0.898238
382 3 0.364876 0.471345 0.901585
349 3 0.343856 0.189499 0.905532
280 3 0.538897 0.236503 0.904763
223 3 0.584344 0.0680019 0.907133
460 3 0.557878 0.255483 0.906549
183 3 0.677917 0.756525 0.910102
219 3 0.879595 0.354609 0.915118
248 3 0.0534395 0.157251 0.919349
477 3 0.139773 0.161416 0.91842
173 3 0.74464 0.170758 0.921546
196 3 0.0976535 0.2631 0.918839
194 3 0.84407 0.287019 0.920226
486 3 0.0328811 0.631994 0.92052
128 3 0.341448 0.719993 0.92068
189 3 0.543988 0.800257 0.921161
201 3 0.713205 0.838098 0.920266
42 3 0.783289 0.73707 0.928582
512 3 0.269385 0.546375 0.931531
214 3 0.962134 0.580885 0.930217
53 3 0.521963 0.624081 0.931035
332 3 0.383124 0.164451 0.93622
360 3 0.0172776 0.384479 0.934013
182 3 0.00420759 0.71696 0.938459
204 3 0.9518 0.908249 0.940255
405 3 0.0580085 0.94853 0.939009
346 3 0.30067 0.365439 0.941393
507 3 0.15872 0.605221 0.945079
364 3 0.851486 0.919852 0.944279
255 3 0.588196 0.80603 0.946954
376 3 0.815492 0.98179 0.945807
445 3 0.168689 0.14815 0.960914
174 3 0.428177 0.375437 0.966693
355 3 0.885823 0.0212393 0.968638
79 3 0.695725 0.0541423 0.96952
165 3 0.131862 0.202711 0.969971
234 3 0.194851 0.855059 0.970025
476 3 0.602604 0.960907 0.969961
168 3 0.606186 0.166834 0.975886
277 3 0.279506 0.655618 0.977324
494 3 0.69537 0.0819886 0.982606
16 3 0.910652 0.3348 0.982207
216 3 0.0040722 0.441482 0.984245
33 3 0.635562 0.886772 0.980693
144 3 0.358149 0.416671 0.98748
107 3 0.692197 0.75998 0.984376
417 3 0.343075 0.0628305 0.991898
353 3 0.937091 0.695721 0.98934
109 3 0.758966 0.935562 0.991851
64 3 0.279711 0.110311 0.993153
279 3 0.568415 0.352234 0.994201
20 3 0.242648 0.177783 0.996805
490 3 0.452348 0.606592 0.999966
343 3 0.497218 0.751175 0.998894
442 3 0.849641 0.910156 0.999333
ITEM: TIMESTEP
1000
ITEM: NUMBER OF ATOMS
515
ITEM: BOX BOUNDS pp pp pp
-1.7878070701931352e+02 1.7878070701931352e+02
-1.7878070701931352e+02 1.7878070701931352e+02
-1.7878070701931352e+02 1.7878070701931352e+02
ITEM: ATOMS id type xs ys zs
515 3 0.477365 0.0701494 0.000196101
373 3 0.0233678 0.741774 0.000847816
160 3 0.416899 0.820492 0.00250511
94 3 0.639916 0.0643187 0.00513091
273 3 0.739854 0.720831 0.0112991
504 3 0.625264 0.816149 0.00893305
386 3 0.326673 0.392278 0.018795
454 3 0.86708 0.0196361 0.0234972
95 3 0.235241 0.695545 0.0228721
69 3 0.314674 0.733446 0.0252788
380 3 0.139691 0.790267 0.024088
46 3 0.275706 0.790684 0.0300738
418 3 0.83358 0.973703 0.0282421
359 3 0.625419 0.418221 0.0350459
239 3 0.149435 0.556496 0.0333386
111 3 0.40429 0.893737 0.0347676
259 3 0.00919164 0.483967 0.0356059
102 3 0.46978 0.58815 0.0389832
498 3 0.515986 0.174573 0.0415887
227 3 0.492798 0.460406 0.0394707
427 3 0.517555 0.549774 0.0437561
452 3 0.967609 0.601002 0.0449434
409 3 0.907755 0.639796 0.045092
448 3 0.72914 0.659014 0.0433819
251 3 0.893779 0.745942 0.0465631
93 3 0.399667 0.204977 0.0507907
41 3 0.0786398 0.6987 0.0485978
407 3 0.345529 0.303805 0.0511408
17 3 0.949422 0.930865 0.0515216
24 3 0.12617 0.531389 0.0570933
172 3 0.322283 0.617603 0.0557354
125 3 0.427763 0.412034 0.0612216
453 3 0.364322 0.16321 0.064013
443 3 0.792483 0.256623 0.0665103
286 3 0.874895 0.364614 0.0638707
444 3 0.838083 0.660681 0.0659944
469 3 0.346266 0.684957 0.0696897
506 3 0.497764 0.920275 0.0676598
58 3 0.261601 0.727439 0.0720495
114 3 0.676202 0.928367 0.0712995
154 3 0.330181 0.347598 0.075401
383 3 0.944927 0.381037 0.0819686
281 3 0.351069 0.410489 0.0831463
101 3 0.518625 0.53621 0.0838621
156 3 0.963565 0.640631 0.0831488
250 3 0.368768 0.880532 0.0959656
378 3 0.338637 0.473618 0.102
200 3 0.984135 0.351467 0.10601
158 3 0.14509 0.530202 0.108195
371 3 0.970205 0.227352 0.112021
480 3 0.958044 0.837634 0.111937
113 3 0.137735 0.913138 0.110589
205 3 0.86629 0.731369 0.117614
416 3 0.35187 0.884757 0.116103
126 3 0.951839 0.564772 0.119151
45 3 0.417451 0.0945514 0.124548
288 3 0.482849 0.248594 0.124377
270 3 0.971356 0.574411 0.128133
496 3 0.40844 0.645275 0.12937
225 3 0.590201 0.516519 0.135671
231 3 0.163441 0.956098 0.135275
467 3 0.320351 0.146733 0.137281
473 3 0.270186 0.0114324 0.144511
365 3 0.489321 0.0198812 0.143955
27 3 0.461659 0.0968729 0.142176
119 3 0.670564 0.175352 0.144794
459 3 0.873394 0.13888 0.148186
484 3 0.761088 0.614039 0.146624
505 3 0.137781 0.681867 0.146754
236 3 0.135939 0.722684 0.146694
28 3 0.553942 0.0975873 0.149666
285 3 0.0466138 0.438933 0.149157
438 3 0.0685012 0.300241 0.155381
43 3 0.672775 0.337607 0.154207
245 3 0.334268 0.0452288 0.159914
122 3 0.659312 0.0598655 0.158948
71 3 0.41427 0.631175 0.159251
48 3 0.342161 0.698885 0.159994
190 3 0.948507 0.557575 0.163499
252 3 0.586235 0.844063 0.163831
193 3 0.388441 0.530444 0.167004
503 3 0.43429 0.11163 0.172465
312 3 0.603283 0.376817 0.170023
497 3 0.32269 0.455713 0.172756
75 3 0.695954 0.891842 0.181625
391 3 0.848055 0.253715 0.186749
354 3 0.836634 0.307086 0.195269
276 3 0.369989 0.402641 0.19559
181 3 0.289657 0.267103 0.197596
232 3 0.568785 0.568703 0.196248
80 3 0.719154 0.818361 0.198548
325 3 0.721182 0.900172 0.197625
87 3 0.0932276 0.876254 0.201529
268 3 0.333964 0.928435 0.200942
176 3 0.444954 0.344988 0.207819
249 3 0.50602 0.682288 0.206781
419 3 0.664991 0.5051 0.208202
235 3 0.216681 0.761064 0.210754
242 3 0.686309 0.800096 0.208299
330 3 0.733258 0.866259 0.21097
295 3 0.950626 0.17607 0.212664
153 3 0.44549 0.355995 0.213264
179 3 0.857259 0.954496 0.2137
294 3 0.177936 0.575547 0.219191
372 3 0.732912 0.0446375 0.221873
420 3 0.243585 0.927067 0.223246
433 3 0.843818 0.0460655 0.223587
368 3 0.264477 0.0661168 0.225208
320 3 0.162814 0.410378 0.227264
185 3 0.91311 0.640639 0.226637
141 3 0.166757 0.682586 0.22508
326 3 0.479683 0.0322026 0.228598
106 3 0.117514 0.049398 0.232325
256 3 0.44869 0.129186 0.233442
29 3 0.432333 0.229085 0.234817
138 3 0.260365 0.960388 0.23427
470 3 0.274834 0.134423 0.239587
143 3 0.377477 0.252052 0.242658
67 3 0.520472 0.57055 0.241302
180 3 0.650552 0.823124 0.2467
398 3 0.0754941 0.829728 0.246773
61 3 0.159345 0.110564 0.249641
313 3 0.576177 0.800396 0.250969
491 3 0.434874 0.919394 0.250895
90 3 0.030639 0.950452 0.247325
278 3 0.890644 0.060585 0.252786
135 3 0.573942 0.235631 0.253111
73 3 0.741079 0.311195 0.251974
129 3 0.875928 0.722155 0.253473
412 3 0.608969 0.945395 0.254818
440 3 0.413366 0.440725 0.257035
186 3 0.0955856 0.506828 0.256256
224 3 0.189847 0.764994 0.256059
323 3 0.459842 0.565494 0.260691
413 3 0.726032 0.426326 0.263733
209 3 0.614428 0.685266 0.264427
98 3 0.408569 0.815926 0.266449
304 3 0.170047 0.983297 0.264597
282 3 0.440118 0.0632045 0.277608
76 3 0.566919 0.203801 0.27725
475 3 0.0949565 0.934092 0.2798
430 3 0.650887 0.455066 0.285964
479 3 0.138484 0.499928 0.284522
36 3 0.790774 0.543005 0.283237
422 3 0.0577184 0.0736174 0.286917
31 3 0.583709 0.39753 0.286779
184 3 0.0886803 0.450068 0.288149
401 3 0.229124 0.879413 0.290132
414 3 0.558217 0.95218 0.289471
60 3 0.0834251 0.125382 0.291614
221 3 0.19654 0.245213 0.296515
51 3 0.469287 0.303046 0.294926
347 3 0.992919 0.985678 0.296366
131 3 0.297145 0.115684 0.301659
335 3 0.461081 0.394139 0.300863
302 3 0.339981 0.063087 0.302975
178 3 0.321146 0.505343 0.304805
310 3 0.233628 0.581026 0.303548
334 3 0.125606 0.0615997 0.306507
134 3 0.203874 0.514685 0.306335
175 3 0.208788 0.0985488 0.309897
331 3 0.775467 0.266455 0.312095
121 3 0.973601 0.30864 0.313718
82 3 0.503352 0.845441 0.321549
394 3 0.55493 0.707819 0.322029
162 3 0.0695571 0.0466666 0.326138
57 3 0.00262612 0.137224 0.327736
170 3 0.648371 0.164058 0.327837
208 3 0.354154 0.264255 0.329245
274 3 0.904314 0.811051 0.326938
329 3 0.310617 0.542353 0.32949
450 3 0.740446 0.667896 0.33082
44 3 0.764502 0.979016 0.330066
456 3 0.716747 0.375042 0.339136
63 3 0.329142 0.883462 0.341125
327 3 0.0493821 0.964499 0.337549
272 3 0.795542 0.679618 0.341211
307 3 0.759081 0.880665 0.341414
229 3 0.0709345 0.195416 0.348992
314 3 0.038046 0.439123 0.345321
287 3 0.475428 0.518495 0.348693
210 3 0.218638 0.655819 0.347351
306 3 0.383234 0.0168592 0.35222
228 3 0.383994 0.786598 0.353488
18 3 0.923121 0.887449 0.356524
149 3 0.64467 0.975329 0.354824
402 3 0.241868 0.0737406 0.358917
212 3 0.608078 0.958908 0.358899
83 3 0.2806 0.0418494 0.362262
222 3 0.522944 0.114617 0.364466
431 3 0.191167 0.947186 0.362078
478 3 0.877786 0.950816 0.362655
157 3 0.481778 0.238851 0.364738
446 3 0.0791548 0.354993 0.366871
493 3 0.00235238 0.536524 0.365127
124 3 0.375475 0.612564 0.364754
457 3 0.852881 0.377186 0.370581
155 3 0.264713 0.0298911 0.379542
88 3 0.0950941 0.2473 0.377691
461 3 0.364334 0.358861 0.377179
22 3 0.60454 0.498803 0.378033
337 3 4.24334e-05 0.713178 0.380945
341 3 0.816905 0.717164 0.383572
311 3 0.727518 0.392538 0.386363
345 3 0.0255821 0.957898 0.384858
258 3 0.69232 0.814684 0.389124
142 3 0.924676 0.0355444 0.395155
151 3 0.460802 0.697887 0.393399
492 3 0.791274 0.943321 0.395074
499 3 0.98117 0.526828 0.399168
163 3 0.404358 0.0498246 0.402219
421 3 0.0988697 0.702469 0.400967
32 3 0.893567 0.17513 0.404572
188 3 0.732094 0.297996 0.410814
291 3 0.492747 0.594301 0.410146
338 3 0.534985 0.493272 0.414509
247 3 0.0788259 0.827001 0.41251
97 3 0.45599 0.826049 0.412531
350 3 0.281757 0.48637 0.41845
260 3 0.427907 0.840925 0.419158
406 3 0.920679 0.858953 0.416692
66 3 0.875566 0.645589 0.420927
226 3 0.230559 0.0078196 0.424079
35 3 0.211121 0.307516 0.423978
500 3 0.81957 0.518441 0.429556
253 3 0.51544 0.0078202 0.434159
105 3 0.586792 0.210176 0.433338
451 3 0.0894539 0.451921 0.437137
133 3 0.159134 0.572466 0.435604
308 3 0.1375 0.957722 0.438613
39 3 0.0465293 0.0175784 0.439914
290 3 0.985504 0.360828 0.440858
315 3 0.802968 0.488513 0.439346
485 3 0.309331 0.929341 0.440652
130 3 0.115941 0.623279 0.445308
296 3 0.236943 0.296808 0.449659
374 3 0.249251 0.167814 0.453171
262 3 0.900947 0.211844 0.458377
269 3 0.231826 0.302877 0.458736
108 3 0.410324 0.312932 0.456165
432 3 0.44324 0.540278 0.456229
305 3 0.0842244 0.559259 0.458046
348 3 0.0290476 0.203812 0.461733
118 3 0.872682 0.159307 0.465084
237 3 0.477675 0.284969 0.469965
72 3 0.532807 0.889241 0.469372
85 3 0.159203 0.716634 0.471004
230 3 0.514688 0.364876 0.476597
132 3 0.988687 0.861098 0.475288
271 3 0.535564 0.223507 0.479609
78 3 0.892437 0.18043 0.482757
171 3 0.958256 0.409917 0.483032
441 3 0.983588 0.171386 0.489727
474 3 0.792915 0.527547 0.486291
342 3 0.691493 0.930118 0.487624
344 3 0.409422 0.163414 0.49658
389 3 0.15188 0.645475 0.497198
336 3 0.611356 0.0551853 0.499851
1 1 0.5 0.5 0.5
2 1 nan nan nan
4 1 nan nan nan
3 1 nan nan nan
5 2 nan nan nan
6 1 0.5 0.5075 0.5
7 1 nan nan nan
9 1 nan nan nan
8 1 nan nan nan
10 2 nan nan nan
11 1 0.5 0.515 0.5
12 1 nan nan nan
14 1 nan nan nan
13 1 nan nan nan
15 2 nan nan nan
217 3 0.208516 0.523919 0.499661
464 3 0.447597 0.762748 0.507571
399 3 0.509005 0.854496 0.506794
483 3 0.0181044 0.280628 0.511439
169 3 0.713033 0.948564 0.511195
74 3 0.924056 0.608527 0.520777
395 3 0.343052 0.667372 0.519001
319 3 0.682289 0.237194 0.524613
62 3 0.7243 0.314424 0.522421
177 3 0.808392 0.638456 0.525098
508 3 0.944713 0.783693 0.526875
91 3 0.799274 0.391298 0.53769
211 3 0.930681 0.956717 0.540942
164 3 0.090671 0.907749 0.543234
339 3 0.655854 0.940653 0.547325
482 3 0.575714 0.0320433 0.552449
351 3 0.894831 0.429021 0.550463
59 3 0.936134 0.606506 0.550609
509 3 0.194374 0.848072 0.552807
403 3 0.314034 0.97546 0.549377
390 3 0.400608 0.0267496 0.580225
300 3 0.841303 0.780721 0.577868
367 3 0.142969 0.883297 0.576859
392 3 0.688403 0.997595 0.576764
463 3 0.678713 0.124269 0.582225
199 3 0.859299 0.241006 0.583625
328 3 0.190249 0.518212 0.582692
19 3 0.10589 0.695043 0.583283
241 3 0.0116483 0.77251 0.581525
220 3 0.382489 0.487272 0.587981
410 3 0.861177 0.795299 0.585558
266 3 0.406141 0.0126489 0.589547
511 3 0.809509 0.410816 0.589889
283 3 0.750438 0.610197 0.588446
356 3 0.896527 0.929112 0.588262
147 3 0.257864 0.913821 0.59588
366 3 0.458866 0.168358 0.599223
139 3 0.370639 0.323651 0.603618
77 3 0.735114 0.060844 0.604623
264 3 0.18875 0.324425 0.604259
267 3 0.508402 0.712061 0.609468
361 3 0.953238 0.0790513 0.614401
137 3 0.288166 0.19799 0.616128
316 3 0.0909113 0.946845 0.617241
123 3 0.433607 0.627216 0.622144
26 3 0.942425 0.335136 0.624291
92 3 0.957911 0.603417 0.624942
104 3 0.782038 0.71343 0.624418
388 3 0.557201 0.874792 0.626534
340 3 0.884982 0.890143 0.626811
187 3 0.899621 0.927924 0.624188
487 3 0.187993 0.594968 0.627986
198 3 0.742883 0.62799 0.630384
439 3 0.490991 0.0786359 0.634344
404 3 0.385707 0.580867 0.633668
465 3 0.742767 0.679874 0.638772
299 3 0.461992 0.702126 0.637582
37 3 0.363854 0.297176 0.64236
161 3 0.103433 0.391958 0.640154
495 3 0.654288 0.617043 0.642257
263 3 0.94311 0.856169 0.639923
309 3 0.768786 0.986294 0.64058
455 3 0.918014 0.0559078 0.643168
265 3 0.773992 0.48918 0.643209
148 3 0.958756 0.805953 0.643699
357 3 0.924348 0.513039 0.648784
215 3 0.156339 0.589793 0.651157
321 3 0.62134 0.861942 0.654524
202 3 0.911352 0.0860151 0.655726
408 3 0.522833 0.257372 0.658113
369 3 0.069665 0.860216 0.65702
415 3 0.14428 0.910136 0.657783
25 3 0.566858 0.174015 0.666624
426 3 0.279672 0.452113 0.66517
146 3 0.689028 0.494298 0.663608
436 3 0.795063 0.626683 0.665639
49 3 0.0255786 0.899724 0.664478
292 3 0.321013 0.269749 0.66716
195 3 0.235592 0.587236 0.669786
489 3 0.0118846 0.744134 0.66826
381 3 0.847759 0.282303 0.673729
40 3 0.636726 0.455505 0.673117
462 3 0.24453 0.814284 0.671665
324 3 0.431975 0.195792 0.674702
206 3 0.731144 0.335317 0.675041
136 3 0.0363393 0.754071 0.674974
86 3 0.168347 0.412071 0.679841
192 3 0.889941 0.23768 0.693127
34 3 0.510842 0.713494 0.691629
437 3 0.399186 0.126239 0.695131
458 3 0.3619 0.450985 0.697737
99 3 0.214406 0.528452 0.69882
167 3 0.958794 0.449914 0.704445
21 3 0.307225 0.530595 0.709502
435 3 0.493766 0.726466 0.706063
275 3 0.84848 0.399221 0.713475
481 3 0.31781 0.434088 0.712357
352 3 0.630124 0.501084 0.713687
55 3 0.674213 0.500489 0.712111
429 3 0.692741 0.898002 0.716585
23 3 0.598639 0.325384 0.724944
38 3 0.137112 0.448844 0.721726
47 3 0.450335 0.78781 0.722874
30 3 0.574825 0.0763213 0.731575
203 3 0.784644 0.517447 0.730824
213 3 0.00711546 0.58956 0.731062
110 3 0.0355639 0.723135 0.731564
333 3 0.0465817 0.898241 0.729525
449 3 0.119806 0.579029 0.734857
468 3 0.289753 0.88652 0.733643
425 3 0.339676 0.94227 0.73358
145 3 0.581535 0.863256 0.737948
96 3 0.411105 0.443788 0.742515
84 3 0.539102 0.680058 0.742319
317 3 0.971383 0.0319955 0.747993
103 3 0.191413 0.0822721 0.747057
244 3 0.282093 0.143497 0.746316
159 3 0.426375 0.0776909 0.751259
424 3 0.390671 0.0121235 0.759704
434 3 0.823601 0.253749 0.759177
257 3 0.465364 0.373164 0.759963
297 3 0.415328 0.425999 0.75969
466 3 0.849314 0.426118 0.76119