# Data file for Y-DNA hydrogel
4 atoms
3 bonds
3 angles

1 atom types
1 bond types
1 angle types

-20.0 20.0 xlo xhi
-20.0 20.0 ylo yhi
-20.0 20.0 zlo zhi

Masses

1 1.0

Atoms

# Format: ID molecule-ID atom-type x y z
1 1 1 0.0 0.0 0.0
2 1 1 1.0 0.0 0.0
3 1 1 -0.5 0.866 0.0
4 1 1 -0.5 -0.866 0.0

Bonds

# Format: ID bond-type atom-ID1 atom-ID2
1 1 1 2
2 1 1 3
3 1 1 4

Angles

# Format: ID angle-type atom-ID1 atom-ID2 atom-ID3
1 1 2 1 3
2 1 2 1 4
3 1 3 1 4