ITEM: TIMESTEP
0
ITEM: NUMBER OF ATOMS
120
ITEM: BOX BOUNDS pp pp pp
0.0000000000000000e+00 2.3712622029933751e+01
0.0000000000000000e+00 2.3712622029933751e+01
0.0000000000000000e+00 2.3712622029933751e+01
ITEM: ATOMS id type xs ys zs
75 1 0.580641 0.0231986 0.0824292
13 2 0.636702 0.0530731 5.0751e-05
15 1 0.595146 0.0574061 0.00576817
16 1 0.660633 0.0368647 0.0307584
89 2 0.2123 0.120252 0.0700224
91 1 0.246232 0.0979759 0.0814577
92 1 0.192138 0.111039 0.0341473
101 2 0.443158 0.163862 0.0369662
103 1 0.480683 0.146761 0.0457893
102 1 0.416787 0.174127 0.0682335
50 1 0.222445 0.393738 0.00462907
40 1 0.407545 0.5808 0.0246436
37 2 0.434971 0.557922 0.00222059
38 1 0.466919 0.538366 0.0215933
107 1 0.283944 0.700531 0.0234513
76 1 0.565288 0.957589 0.0542391
73 2 0.589099 0.992387 0.0549067
74 1 0.621369 0.996375 0.0280517
90 1 0.198529 0.15174 0.094462
100 1 0.43222 0.396418 0.123263
99 1 0.391639 0.457143 0.124124
97 2 0.426574 0.436729 0.112242
98 1 0.455864 0.456628 0.0893373
1 2 0.95059 0.572211 0.151544
2 1 0.940238 0.532534 0.161394
4 1 0.971403 0.580312 0.115773
20 1 0.817599 0.886143 0.160161
17 2 0.852973 0.908916 0.15725
18 1 0.854202 0.942859 0.132253
69 2 0.165706 0.0270249 0.208044
72 1 0.126942 0.0129548 0.199226
70 1 0.175749 0.0377893 0.247562
71 1 0.194427 0.0303307 0.177343
3 1 0.940131 0.603787 0.177465
65 2 0.379598 0.909632 0.191537
68 1 0.359436 0.872594 0.191643
66 1 0.421756 0.910692 0.191686
19 1 0.887117 0.897747 0.179336
67 1 0.357603 0.945611 0.191282
85 2 0.551873 0.322203 0.271804
86 1 0.511822 0.321403 0.284985
88 1 0.574525 0.286642 0.271013
64 1 0.995261 0.319127 0.265744
61 2 0.0149555 0.356355 0.263603
62 1 0.0563452 0.358789 0.271311
87 1 0.569271 0.358565 0.259415
63 1 0.99326 0.39115 0.253754
28 1 0.230352 0.392464 0.477436
27 1 0.230652 0.465504 0.477262
25 2 0.251587 0.428897 0.477383
26 1 0.293759 0.428724 0.47745
112 1 0.670085 0.527254 0.498662
119 1 0.546016 0.621077 0.491061
45 2 0.297602 0.797375 0.482251
47 1 0.258306 0.812399 0.485156
48 1 0.318284 0.799383 0.445555
113 2 0.314168 0.221549 0.579197
114 1 0.287868 0.233277 0.548387
117 2 0.557124 0.582228 0.503133
120 1 0.527447 0.553543 0.511782
118 1 0.597909 0.572064 0.506555
109 2 0.69046 0.56414 0.500286
110 1 0.732624 0.564954 0.500355
10 1 0.196102 0.639649 0.576573
111 1 0.668672 0.600212 0.501843
46 1 0.316217 0.780343 0.516042
44 1 0.333126 0.905194 0.516347
41 2 0.321529 0.93494 0.543898
43 1 0.285515 0.930829 0.56545
42 1 0.345945 0.968798 0.549897
77 2 0.816325 0.973022 0.575822
78 1 0.798168 0.995997 0.545476
79 1 0.847564 0.94636 0.566248
116 1 0.317946 0.180786 0.589317
115 1 0.33669 0.250585 0.599885
56 1 0.677425 0.489844 0.634444
12 1 0.204327 0.569169 0.593896
53 2 0.665944 0.521905 0.659317
11 1 0.143738 0.604818 0.613723
9 2 0.181389 0.604545 0.594731
29 2 0.37465 0.740919 0.632143
31 1 0.375201 0.703327 0.651245
23 1 0.89083 0.694143 0.665111
30 1 0.338404 0.762153 0.628425
32 1 0.410344 0.757277 0.616758
33 2 0.420177 0.91061 0.623219
34 1 0.42367 0.895528 0.662446
36 1 0.453011 0.908552 0.596835
35 1 0.38385 0.92775 0.610375
80 1 0.803243 0.976708 0.615743
5 2 0.997098 0.228579 0.727922
7 1 0.98596 0.193739 0.706935
8 1 0.00339446 0.264669 0.707035
55 1 0.625251 0.527803 0.668678
54 1 0.695156 0.548068 0.674828
21 2 0.901928 0.702904 0.70484
22 1 0.885456 0.736419 0.724433
24 1 0.929498 0.67815 0.724978
94 1 0.868108 0.824844 0.741341
93 2 0.865703 0.863374 0.724366
95 1 0.852906 0.868073 0.68446
96 1 0.876094 0.897205 0.747298
6 1 0.00193961 0.22733 0.769796
14 1 0.654327 0.0649485 0.963626
84 1 0.818926 0.134122 0.968965
104 1 0.432005 0.170699 0.996876
83 1 0.830073 0.199599 0.938576
81 2 0.841148 0.169868 0.966356
82 1 0.874444 0.175882 0.991528
51 1 0.161812 0.416473 0.970834
49 2 0.190896 0.386683 0.977549
52 1 0.18843 0.349838 0.957184
39 1 0.430449 0.554601 0.960425
60 1 0.108118 0.646461 0.962971
57 2 0.136353 0.677751 0.96442
59 1 0.126159 0.716035 0.949971
58 1 0.174781 0.670758 0.980319
105 2 0.291409 0.706014 0.98231
106 1 0.263309 0.692698 0.953823
108 1 0.326973 0.724814 0.969657
