ITEM: TIMESTEP
0
ITEM: NUMBER OF ATOMS
160
ITEM: BOX BOUNDS pp pp pp
0.0000000000000000e+00 3.0000000000000000e+01
0.0000000000000000e+00 3.0000000000000000e+01
0.0000000000000000e+00 3.0000000000000000e+01
ITEM: ATOMS id type xs ys zs
1 2 0.731748 0.91251 0.0797524
2 2 0.737177 0.922519 0.0705575
3 3 0.746906 0.935226 0.0676491
4 3 0.759518 0.948713 0.0715707
5 3 0.812101 0.0157713 0.0988733
6 2 0.821241 0.0289517 0.106462
7 4 0.836595 0.0371511 0.114421
8 3 0.851017 0.0391932 0.120072
9 3 0.867325 0.0325861 0.123397
10 2 0.882691 0.0298255 0.120953
11 4 0.894645 0.0267342 0.109382
12 1 0.908428 0.029375 0.0963273
13 2 0.919568 0.0367545 0.0845909
14 4 0.925426 0.0515196 0.0780098
15 4 0.931322 0.0679048 0.0746987
16 1 0.938766 0.0800701 0.080262
17 4 0.954689 0.0899104 0.0856941
18 2 0.970058 0.0907803 0.0892096
19 3 0.986288 0.0905858 0.0858397
20 2 0.998539 0.0802965 0.0860712
21 2 0.0125123 0.0710361 0.0791886
22 1 0.0264782 0.0671912 0.0677938
23 2 0.0536131 0.0248848 0.0526204
24 3 0.0518781 0.0074865 0.0546555
25 1 0.0505669 0.989428 0.0525883
26 2 0.054223 0.97371 0.0441383
27 1 0.0650481 0.961188 0.0378435
28 4 0.07806 0.952598 0.0374661
29 3 0.0965402 0.948418 0.0380917
30 2 0.109249 0.939655 0.046572
31 1 0.117293 0.928944 0.059795
32 4 0.117277 0.913317 0.0756412
33 1 0.113007 0.896776 0.0822768
34 2 0.100867 0.880389 0.0834134
35 2 0.0909805 0.864261 0.07817
36 1 0.0838762 0.852569 0.0674989
37 3 0.0844062 0.844804 0.0509887
38 1 0.0926056 0.836693 0.0381295
39 3 0.105728 0.823112 0.0311044
40 2 0.118165 0.812371 0.0283982
41 2 0.196077 0.862721 0.0109812
42 2 0.190913 0.879354 0.00883313
43 3 0.193828 0.895858 0.00137824
44 3 0.193475 0.906745 0.990008
45 3 0.207773 0.981285 0.987904
46 2 0.198132 0.992101 0.972636
47 4 0.181099 0.996457 0.964742
48 2 0.165043 0.0042127 0.964193
49 1 0.15204 0.0122484 0.969942
50 4 0.141026 0.022885 0.979696
51 2 0.143315 0.0304875 0.995952
52 2 0.147893 0.0450836 0.00705974
53 1 0.145149 0.0659921 0.0101131
54 4 0.142033 0.0844627 0.00112505
55 3 0.137269 0.0962233 0.987279
56 2 0.123826 0.101596 0.975862
57 2 0.105041 0.101624 0.969819
58 4 0.0875247 0.0991721 0.968698
59 1 0.0709524 0.0941966 0.98
60 3 0.0612051 0.0961145 0.991911
61 1 0.0502974 0.101865 0.00813043
62 2 0.0446603 0.113425 0.0192526
63 4 0.0147907 0.100901 0.0526092
64 3 0.99981 0.0913079 0.0492613
65 3 0.984953 0.0814907 0.0496613
66 2 0.97632 0.0679585 0.0556597
67 3 0.973845 0.0579234 0.0692716
68 1 0.968765 0.0507084 0.0846348
69 4 0.959004 0.050335 0.0967585
70 1 0.94816 0.0548925 0.109717
71 1 0.930252 0.0622133 0.115214
72 3 0.91395 0.0647301 0.112581
73 4 0.899522 0.0660427 0.105268
74 1 0.885055 0.0640605 0.0945649
75 3 0.874677 0.0528938 0.0890416
76 2 0.866151 0.0388886 0.0839828
77 2 0.861327 0.0219678 0.0850863
78 1 0.854107 0.00768474 0.0958504
79 3 0.845752 0.996798 0.111492
80 2 0.835266 0.997889 0.123978
81 2 0.68938 0.999156 0.812404
82 2 0.699971 0.000618779 0.824208
83 3 0.715129 0.00210345 0.825898
84 3 0.738012 0.967581 0.821814
85 3 0.810488 0.0366795 0.837934
86 2 0.82772 0.0343443 0.838733
87 4 0.844643 0.0378889 0.835554
88 2 0.861543 0.0452329 0.836757
89 1 0.874087 0.0579959 0.841192
90 3 0.882934 0.0705155 0.850644
91 2 0.883347 0.081935 0.863899
92 1 0.88761 0.0806688 0.880491
93 1 0.897155 0.0796551 0.897035
94 3 0.906702 0.0727882 0.90844
95 2 0.923771 0.0658309 0.916225
96 3 0.940215 0.0577705 0.914581
97 4 0.958871 0.0596913 0.909784
98 4 0.976609 0.0671181 0.909897
99 1 0.985583 0.0787891 0.915967
100 4 0.990501 0.0934937 0.927018
101 3 0.995149 0.100932 0.941116
102 2 0.998445 0.106774 0.958417
103 3 0.0366039 0.127983 0.980542
104 4 0.0557142 0.133096 0.984018
105 2 0.0707428 0.13328 0.994106
106 4 0.0864896 0.126661 0.997121
107 1 0.0954849 0.112164 0.00543229
108 3 0.0986147 0.0935465 0.0086368
109 3 0.10647 0.0777313 0.0024003
110 2 0.109815 0.0678404 0.992318
111 1 0.117736 0.0600138 0.979211
112 4 0.134891 0.0597953 0.972677
113 3 0.150772 0.0578931 0.969745
114 3 0.165377 0.0546413 0.973303
115 1 0.176248 0.0449384 0.981392
116 4 0.18553 0.0289758 0.988865
117 3 0.18267 0.014579 0.998264
118 1 0.177525 0.000130515 0.00453135
119 3 0.170642 0.984742 0.999133
120 2 0.16832 0.969627 0.98901
121 2 0.0697353 0.672186 0.0202275
122 2 0.0782137 0.689235 0.0276029
123 3 0.0743059 0.70468 0.0338858
124 3 0.0677751 0.715745 0.0417343
125 3 0.0963047 0.797947 0.0585341
126 2 0.107335 0.809998 0.0676523
127 4 0.116833 0.825298 0.0683458
128 2 0.121701 0.838614 0.0633797
129 4 0.122374 0.855144 0.0581529
130 3 0.11698 0.869295 0.04865
131 3 0.105038 0.883838 0.0454225
132 4 0.0929853 0.897254 0.0456325
133 1 0.0831679 0.908773 0.0548284
134 4 0.0785145 0.919829 0.0643557
135 3 0.0787667 0.9355 0.0742999
136 2 0.0809471 0.956813 0.0732852
137 1 0.0883738 0.970036 0.0719058
138 4 0.0926285 0.984167 0.0589135
139 3 0.0895613 0.99265 0.04323
140 4 0.0812915 0.996673 0.0287551
141 2 0.0702486 0.00774984 0.0201737
142 3 0.0536072 0.0126091 0.0158019
143 3 0.00879265 0.0673712 0.954857
144 2 0.99091 0.0632259 0.955744
145 1 0.975158 0.0698598 0.954759
146 4 0.961408 0.0772628 0.945637
147 1 0.952204 0.0905202 0.930893
148 1 0.950546 0.0969802 0.916653
149 2 0.941298 0.0939573 0.896532
150 3 0.936221 0.0851227 0.884079
151 2 0.930252 0.068948 0.877368
152 4 0.915632 0.0570803 0.872556
153 4 0.902583 0.0438443 0.875179
154 3 0.885177 0.044255 0.879491
155 2 0.867359 0.0471915 0.878766
156 4 0.853682 0.0566354 0.873631
157 3 0.841739 0.067964 0.862808
158 1 0.835942 0.0747619 0.847252
159 3 0.830144 0.0732482 0.829304
160 2 0.821215 0.0672787 0.814136
ITEM: TIMESTEP
1000
ITEM: NUMBER OF ATOMS
160
ITEM: BOX BOUNDS pp pp pp
0.0000000000000000e+00 3.0000000000000000e+01
0.0000000000000000e+00 3.0000000000000000e+01
0.0000000000000000e+00 3.0000000000000000e+01
ITEM: ATOMS id type xs ys zs
1 2 0.838313 0.0580731 0.0963899
2 2 0.826306 0.0806781 0.115593
3 3 0.819329 0.0512177 0.129651
4 3 0.846743 0.0330639 0.142876
5 3 0.873927 0.0303378 0.155446
6 2 0.869433 0.03848 0.123367
7 4 0.890661 0.0314009 0.104373
8 3 0.912167 0.00611275 0.0935929
9 3 0.911749 0.976358 0.0911541
10 2 0.9347 0.99796 0.101935
11 4 0.905978 0.993803 0.0835225
12 1 0.905815 0.999383 0.0495431
13 2 0.931919 0.983291 0.0470976
14 4 0.905505 0.00194548 0.0497731
15 4 0.919814 0.0198982 0.0217851
16 1 0.938788 0.0453085 0.0146129
17 4 0.926866 0.0493739 0.044136
18 2 0.955149 0.0655802 0.0307266
19 3 0.974656 0.0898584 0.0424454
20 2 0.982941 0.113296 0.0235422
21 2 0.967993 0.0924071 0.0410866
22 1 0.98297 0.0679716 0.0539831
23 2 0.0103213 0.0454081 0.0644867
24 3 0.0214233 0.0254756 0.0400047
25 1 0.0180293 0.997218 0.0550388
26 2 0.0258858 0.967002 0.0454091
27 1 0.0471527 0.955891 0.0201708
28 4 0.0723008 0.943876 0.0351608
29 3 0.0958312 0.958792 0.0279169
30 2 0.0629732 0.964536 0.0178936
31 1 0.0927699 0.965131 0.0289425
32 4 0.103107 0.946122 0.0544622
33 1 0.11679 0.921821 0.0786452
34 2 0.111459 0.891755 0.0684305
35 2 0.0935027 0.894057 0.0981994
36 1 0.0847285 0.865384 0.0870579
37 3 0.0737402 0.871454 0.0578543
38 1 0.0696001 0.84653 0.0330756
39 3 0.0435281 0.827684 0.0385754
40 2 0.0663702 0.839497 0.0534551
41 2 0.116464 0.930271 0.929939
42 2 0.132428 0.935376 0.963838
43 3 0.12321 0.965495 0.956514
44 3 0.151622 0.97492 0.977509
45 3 0.151865 0.983208 0.943095
46 2 0.158507 0.99257 0.97698
47 4 0.130071 0.00224471 0.991389
48 2 0.117053 0.0248575 0.0129159
49 1 0.131047 0.0166494 0.0401008
50 4 0.117438 0.0111874 0.00611182
51 2 0.108392 0.0415425 0.0123162
52 2 0.121454 0.0732202 0.998267
53 1 0.120084 0.0748397 0.0343189
54 4 0.0980068 0.0810553 0.0118045
55 3 0.106223 0.0881775 0.980458
56 2 0.0868835 0.0679751 0.967041
57 2 0.0573221 0.0676444 0.950847
58 4 0.0334467 0.0562936 0.934752
59 1 0.0290603 0.0527245 0.965229
60 3 0.00861862 0.0564106 0.994121
61 1 0.0171095 0.0653567 0.0275701
62 2 0.0025021 0.0384983 0.00788568
63 4 0.975739 0.0259999 0.00800081
64 3 0.992223 0.00690312 0.0270094
65 3 0.974923 0.0285732 0.0170117
66 2 0.982316 0.00674973 0.0414288
67 3 0.955572 0.0225824 0.0596142
68 1 0.939596 0.0348779 0.0825662
69 4 0.965059 0.0269381 0.0579998
70 1 0.940998 0.0318639 0.0803421
71 1 0.950566 0.0637405 0.0876868
72 3 0.922561 0.080436 0.0805378
73 4 0.90692 0.054951 0.0746025
74 1 0.888631 0.0365794 0.0586436
75 3 0.876361 0.0625495 0.0451512
76 2 0.873584 0.0309147 0.0498167
77 2 0.852799 0.0170154 0.0255614
78 1 0.869724 0.987932 0.0366632
79 3 0.851193 0.973743 0.0617572
80 2 0.860922 0.999875 0.0808544
81 2 0.800171 0.999075 0.798015
82 2 0.822465 0.00434981 0.817643
83 3 0.842726 0.0309004 0.831322
84 3 0.848221 0.0418544 0.800594
85 3 0.873791 0.0587127 0.806188
86 2 0.891636 0.0546905 0.835984
87 4 0.875348 0.040643 0.812686
88 2 0.884061 0.0516407 0.840924
89 1 0.87687 0.0700667 0.868756
90 3 0.905021 0.0795834 0.885051
91 2 0.900343 0.080919 0.916189
92 1 0.919523 0.106282 0.908937
93 1 0.917492 0.0812371 0.930039
94 3 0.935115 0.0610583 0.945706
95 2 0.960535 0.0578285 0.935589
96 3 0.942708 0.0310746 0.944781
97 4 0.957818 0.0562122 0.930673
98 4 0.987643 0.069678 0.941147
99 1 0.993024 0.0404142 0.927325
100 4 -0.000656665 0.0676132 0.938371
101 3 0.00625139 0.0995675 0.927667
102 2 0.0205178 0.0918541 0.956434
103 3 0.0155536 0.115274 0.977758
104 4 0.034345 0.0889937 0.983022
105 2 0.0565986 0.100379 0.0053768
106 4 0.0555543 0.0673636 0.000201741
107 1 0.0631635 0.050248 0.0285238
108 3 0.0563648 0.0556516 0.995387
109 3 0.0726174 0.0337612 0.986413
110 2 0.0955529 0.0154303 0.971035
111 1 0.118077 0.0123044 0.950852
112 4 0.140595 0.0344042 0.942793
113 3 0.127573 0.0630525 0.95912
114 3 0.146626 0.0430868 0.978274
115 1 0.162566 0.0278684 0.00357846
116 4 0.168925 0.997728 0.0214505
117 3 0.153876 0.970328 0.0226282
118 1 0.136874 0.947293 0.00974532
119 3 0.113315 0.954249 0.994099
120 2 0.0915365 0.97987 0.99471
121 2 0.0720288 0.79532 0.0546513
122 2 0.0638925 0.815801 0.0867495
123 3 0.0983775 0.805007 0.0869587
124 3 0.105419 0.834422 0.0736652
125 3 0.131127 0.853835 0.0745515
126 2 0.106212 0.841526 0.0622744
127 4 0.111185 0.846024 0.0308712
128 2 0.137848 0.855109 0.0475532
129 4 0.109946 0.847576 0.0386002
130 3 0.127164 0.867378 0.0168305
131 3 0.108314 0.891366 0.00837426
132 4 0.0865954 0.90969 0.0133945
133 1 0.0781035 0.905721 0.0460821
134 4 0.0743145 0.921984 0.0763289
135 3 0.0554781 0.953467 0.0823729
136 2 0.0666551 0.972533 0.0630311
137 1 0.0609874 0.00110258 0.0443913
138 4 0.0852852 0.00693387 0.0240819
139 3 0.0506845 0.999445 0.031413
140 4 0.0359181 0.00832896 0.00479906
141 2 0.0104628 0.990199 0.992913
142 3 0.00303989 0.0140957 0.970983
143 3 0.0292214 0.00883418 0.988046
144 2 0.998483 0.0086311 0.978077
145 1 0.980307 0.0305171 0.965041
146 4 0.957127 0.0522573 0.979753
147 1 0.965348 0.0808863 0.972029
148 1 0.974834 0.106554 0.984595
149 2 0.982048 0.115038 0.952537
150 3 0.957172 0.130098 0.971054
151 2 0.973746 0.115079 0.945861
152 4 0.963172 0.0971362 0.918675
153 4 0.945314 0.0749452 0.89951
154 3 0.925235 0.0463356 0.896169
155 2 0.893067 0.0404687 0.911757
156 4 0.92341 0.0465432 0.895631
157 3 0.907748 0.0388372 0.926302
158 1 0.907277 0.0357528 0.960627
159 3 0.889488 0.0125606 0.948066
160 2 0.859061 0.0266902 0.954195
ITEM: TIMESTEP
2000
ITEM: NUMBER OF ATOMS
160
ITEM: BOX BOUNDS pp pp pp
0.0000000000000000e+00 3.0000000000000000e+01
0.0000000000000000e+00 3.0000000000000000e+01
0.0000000000000000e+00 3.0000000000000000e+01
ITEM: ATOMS id type xs ys zs
1 2 0.983615 0.0306833 0.094488
2 2 0.986129 0.0226484 0.0648819
3 3 0.985457 0.0411905 0.0943729
4 3 0.975528 0.0272536 0.0653153
5 3 0.944336 0.012708 0.0749366
6 2 0.91623 0.0124992 0.0638015
7 4 0.897639 0.0344392 0.0572106
8 3 0.88064 0.0107873 0.0755853
9 3 0.877724 0.992307 0.0496123
10 2 0.884536 0.964793 0.0299588
11 4 0.868261 0.9942 0.0267818
12 1 0.887484 0.995211 0.995507
13 2 0.903821 0.0170769 0.0196926
14 4 0.896146 0.00832285 0.991144
15 4 0.903094 0.0249547 0.0200344
16 1 0.910097 0.0396985 0.996699
17 4 0.92315 0.0638555 0.988942
18 2 0.946715 0.0846853 0.00353043
19 3 0.923137 0.0644915 0.986992
20 2 0.937271 0.0879631 0.000432714
21 2 0.970043 0.0905552 0.0159177
22 1 0.979992 0.0871681 0.0461523
23 2 0.995492 0.0572585 0.0419331
24 3 0.995839 0.0232977 0.0265475
25 1 0.00826272 0.993132 0.0399742
26 2 0.0206148 0.97121 0.0214695
27 1 0.0444392 0.968187 0.0369646
28 4 0.0394637 0.934985 0.0417492
29 3 0.0585237 0.95527 0.0585564
30 2 0.0479417 0.925856 0.0468679
31 1 0.0532725 0.9493 0.0699551
32 4 0.0563338 0.972802 0.0853507
33 1 0.0465827 0.946548 0.105591
34 2 0.0367576 0.977926 0.108269
35 2 0.00557667 0.96823 0.11692
36 1 0.989297 0.937771 0.101945
37 3 0.972767 0.928554 0.0745415
38 1 0.971085 0.899374 0.0902038
39 3 0.974868 0.86811 0.0797162
40 2 0.949837 0.88558 0.0901901
41 2 0.144538 0.00713549 0.982363
42 2 0.126761 0.00193784 0.951603
43 3 0.112714 0.977157 0.937892
44 3 0.129904 0.00458044 0.95471
45 3 0.129124 0.971575 0.941279
46 2 0.103206 0.953112 0.9549
47 4 0.075084 0.955002 0.976816
48 2 0.0541869 0.957363 1.00055
49 1 0.0776321 0.977727 0.01322
50 4 0.0751851 0.953294 0.987717
51 2 0.072257 0.976719 0.0119615
52 2 0.0906908 0.000700773 0.0286386
53 1 0.0859757 0.0301674 0.0232057
54 4 0.101265 0.0451593 0.992128
55 3 0.127784 0.045916 0.972935
56 2 0.0953342 0.0367122 0.964332
57 2 0.0666913 0.0551632 0.945781
58 4 0.037353 0.0532418 0.95744
59 1 0.0651993 0.0482431 0.934181
60 3 0.0382931 0.0491184 0.954361
61 1 0.0190995 0.0447302 0.979186
62 2 0.994533 0.0216666 0.984697
63 4 0.988313 0.990851 0.00465541
64 3 0.983908 0.961517 0.00724809
65 3 0.98745 0.993203 0.00437468
66 2 0.986421 0.958254 0.00223773
67 3 0.987783 0.958022 0.0374259
68 1 0.953165 0.960602 0.0288608
69 4 0.943475 0.987474 0.00812546
70 1 0.951261 0.00569032 0.0314498
71 1 0.971456 0.991433 0.0466363
72 3 0.950443 0.998386 0.018951
73 4 0.940091 0.024075 0.035735
74 1 0.928532 0.0536465 0.0315173
75 3 0.937294 0.062497 0.0599798
76 2 0.936465 0.0523079 0.0305398
77 2 0.915978 0.074788 0.0311812
78 1 0.891602 0.0824572 0.0112711
79 3 0.907763 0.0871062 0.039503
80 2 0.8934 0.0666556 0.0176509
81 2 0.939462 0.104148 0.903288
82 2 0.91084 0.105696 0.917586
83 3 0.936711 0.099487 0.893062
84 3 0.954355 0.115443 0.92174
85 3 0.939516 0.108174 0.950666
86 2 0.924266 0.125779 0.977196
87 4 0.947801 0.128687 0.997933
88 2 0.926538 0.127021 0.971187
89 1 0.899337 0.105806 0.971884
90 3 0.896752 0.0797808 0.950942
91 2 0.903742 0.0648308 0.919424
92 1 0.890492 0.0310462 0.918398
93 1 0.911045 0.0473263 0.90083
94 3 0.935785 0.0278369 0.918905
95 2 0.960734 0.0108336 0.907302
96 3 0.980325 0.0155399 0.931554
97 4 0.955558 0.0191731 0.904132
98 4 0.970642 0.00716337 0.924132
99 1 0.989749 0.027547 0.939419
100 4 0.00114935 0.0606979 0.938011
101 3 0.0264086 0.0728267 0.91957
102 2 0.00411132 0.0700685 0.941005
103 3 0.0093294 0.0940351 0.963505
104 4 0.0117218 0.0814172 0.994679
105 2 0.0432566 0.0837971 0.993092
106 4 0.0631217 0.0596776 0.993398
107 1 0.0364793 0.0640727 0.0141891
108 3 0.0581994 0.0462394 0.994676
109 3 0.0674811 0.0123281 0.990001
110 2 0.0935853 0.994512 0.975879
111 1 0.0609514 0.00924143 0.978752
112 4 0.0915863 1.00011 0.98141
113 3 0.113257 0.981178 0.00178926
114 3 0.12918 0.959313 0.0258136
115 1 0.121296 0.971335 0.995441
116 4 0.109256 0.932856 0.00219056
117 3 0.0861066 0.940126 0.0278049
118 1 0.0915465 0.906555 0.0309281
119 3 0.0866805 0.942548 0.0289824
120 2 0.0826885 0.910914 0.0276631
121 2 0.157165 0.917259 0.107345
122 2 0.15609 0.889092 0.0888448
123 3 0.150302 0.91351 0.0689066
124 3 0.149317 0.882163 0.0660407
125 3 0.157313 0.914321 0.0590354
126 2 0.119221 0.919205 0.0530254
127 4 0.0904544 0.908332 0.0686339
128 2 0.074589 0.881009 0.0635038
129 4 0.0456823 0.886624 0.0441841
130 3 0.036261 0.884416 0.0758774
131 3 0.0276262 0.916349 0.0788847
132 4 0.0133204 0.938742 0.0667047
133 1 0.0196958 0.971114 0.0724949
134 4 0.0171614 0.00591706 0.0784132
135 3 0.0330807 0.0373622 0.0875002
136 2 0.0397251 0.0086308 0.0713635
137 1 0.0421631 0.0158447 0.0381912
138 4 0.0296363 0.0093118 0.00541442
139 3 0.0483587 0.00908341 0.0343645
140 4 0.0308489 0.00967915 0.00884922
141 2 0.0261107 0.986451 0.985417
142 3 0.998655 0.984862 0.966479
143 3 0.966725 0.989255 0.966015
144 2 0.942714 0.0114935 0.962961
145 1 0.945838 0.0236133 0.99066
146 4 0.931586 0.034401 0.961266
147 1 0.95569 0.0257119 0.982261
148 1 0.970822 0.0563515 0.990779
149 2 0.956491 0.0531032 0.964102
150 3 0.954597 0.0682751 0.93387
151 2 0.955795 0.0751406 0.9646
152 4 0.943126 0.0719759 0.935185
153 4 0.961576 0.0605476 0.909305
154 3 0.991297 0.0602579 0.885579
155 2 0.00321838 0.0301567 0.899235
156 4 0.979124 0.0539198 0.907187
157 3 0.00740962 0.036125 0.897083
158 1 0.0414353 0.0234069 0.910653
159 3 0.0179254 0.00144613 0.921885
160 2 0.0363627 0.0268525 0.917017
ITEM: TIMESTEP
3000
ITEM: NUMBER OF ATOMS
160
ITEM: BOX BOUNDS pp pp pp
0.0000000000000000e+00 3.0000000000000000e+01
0.0000000000000000e+00 3.0000000000000000e+01
0.0000000000000000e+00 3.0000000000000000e+01
ITEM: ATOMS id type xs ys zs
1 2 0.907848 0.05574 0.0855052
2 2 0.925872 0.0297195 0.0943031
3 3 0.914268 0.0471534 0.119051
4 3 0.930908 0.0322552 0.0924257
5 3 0.908047 0.0136007 0.0790234
6 2 0.90171 0.997625 0.108192
7 4 0.925808 0.98182 0.0934838
8 3 0.90029 0.993464 0.0790648
9 3 0.872695 0.00785395 0.058792
10 2 0.86811 0.0215955 0.0299468
11 4 0.89534 0.0210185 0.0118885
12 1 0.916064 0.0411148 0.991666
13 2 0.941032 0.0366566 0.971832
14 4 0.908899 0.0482433 0.956428
15 4 0.928745 0.0510615 0.983874
16 1 0.935806 0.0800192 1.00131
17 4 0.970695 0.0753479 0.99765
18 2 0.95769 0.0938083 0.0220803
19 3 0.959897 0.0600636 0.0134776
20 2 0.982592 0.0678451 0.993368
21 2 0.00549972 0.0452376 0.0165895
22 1 0.97235 0.0412101 0.0210237
23 2 0.00351468 0.0421346 0.00934969
24 3 0.00271986 0.0099978 0.0125252
25 1 0.978174 0.0240768 0.0303813
26 2 0.99622 0.00442504 0.00784629
27 1 0.990336 0.975709 0.0270627
28 4 0.00542514 0.958436 0.0558008
29 3 0.987522 0.971149 0.0327504
30 2 0.00202246 0.945211 0.0488511
31 1 0.0137766 0.964856 0.0701827
32 4 0.0286969 0.983856 0.0934631
33 1 0.00519395 0.0109752 0.102583
34 2 0.990518 0.00572201 0.13478
35 2 0.996213 0.0240549 0.107287
36 1 0.970264 0.00651624 0.11776
37 3 0.93665 0.00477293 0.131585
38 1 0.943594 0.972846 0.144274
39 3 0.917271 0.964606 0.163911
40 2 0.92718 0.986368 0.14119
41 2 0.129587 0.917291 0.941506
42 2 0.0937869 0.913932 0.943529
43 3 0.0671646 0.935582 0.934407
44 3 0.0315598 0.938412 0.925385
45 3 0.0638195 0.936428 0.936225
46 2 0.0602052 0.929443 0.965453
47 4 0.0745064 0.910273 0.991536
48 2 0.0582988 0.905664 0.959633
49 1 0.0710386 0.935268 0.975855
50 4 0.0853506 0.951649 0.993045
51 2 0.0775178 0.965939 0.0177784
52 2 0.0875621 0.993858 0.0313406
53 1 0.108926 0.0204366 0.0312261
54 4 0.134877 0.0116559 0.0121646
55 3 0.134195 0.0175145 0.980133
56 2 0.12683 0.995079 0.953491
57 2 0.107494 0.971326 0.954493
58 4 0.0763951 0.968339 0.957828
59 1 0.105525 0.971872 0.962451
60 3 0.073797 0.978974 0.962746
61 1 0.0495889 0.972351 0.93619
62 2 0.0239287 0.982152 0.951745
63 4 0.0144037 0.00365561 0.970906
64 3 0.00178738 0.970974 0.981839
65 3 0.984916 0.945454 0.998737
66 2 0.966497 0.966069 0.985397
67 3 0.939555 0.957079 0.000475505
68 1 0.937668 0.96819 0.966291
69 4 0.959662 0.980874 0.987946
70 1 0.951005 0.999419 0.0131881
71 1 0.926082 0.996466 0.0317847
72 3 0.952171 0.998494 0.00988865
73 4 0.934187 0.01283 0.039069
74 1 0.918067 0.0428822 0.0488998
75 3 0.948843 0.058793 0.0531908
76 2 0.932443 0.0353669 0.0343007
77 2 0.915962 0.0610307 0.0285534
78 1 0.888407 0.0620149 0.0119354
79 3 0.905376 0.0919531 0.0197079
80 2 0.893116 0.060509 0.0202084
81 2 1.00035 0.126796 0.92127
82 2 0.0125139 0.116674 0.948777
83 3 0.0178076 0.106705 0.978629
84 3 1.00021 0.104134 0.00394158
85 3 0.974654 0.125818 0.00541862
86 2 0.959647 0.115164 0.977271
87 4 0.963458 0.101601 0.94674
88 2 0.972123 0.113538 0.977547
89 1 0.954734 0.100655 0.950686
90 3 0.945287 0.0964759 0.920323
91 2 0.942142 0.0616696 0.927485
92 1 0.906761 0.0599733 0.911033
93 1 0.934988 0.0450606 0.899059
94 3 0.962711 0.0249531 0.915898
95 2 0.995121 0.0337356 0.911681
96 3 0.0159878 0.0167153 0.93107
97 4 0.984454 0.0342308 0.919796
98 4 0.00430997 0.00739398 0.926991
99 1 0.0353303 0.02222 0.915338
100 4 0.0638268 0.0309483 0.930688
101 3 0.0585817 0.0208346 0.956759
102 2 0.0701028 0.0395179 0.930255
103 3 0.0751155 0.0213123 0.954085
104 4 0.0543998 0.00889533 0.971456
105 2 0.0474002 0.0324325 0.991807
106 4 0.0676431 0.0223227 0.0104708
107 1 0.0379055 0.0305734 0.994807
108 3 0.0664307 0.0188063 0.0074987
109 3 0.0911881 0.000115076 0.99288
110 2 0.11468 0.979559 0.00210191
111 1 0.097975 0.00524151 0.989929
112 4 0.123672 0.980499 0.00129919
113 3 0.115129 0.956491 0.0245717
114 3 0.117641 0.934317 0.00163539
115 1 0.0975843 0.916735 0.0220505
116 4 0.0654363 0.925975 0.0213639
117 3 0.0469757 0.908819 0.0431668
118 1 0.0289695 0.909481 0.0176363
119 3 0.0328301 0.941164 0.0190736
120 2 0.0342064 0.914332 0.998798
121 2 0.084844 0.935753 0.115302
122 2 0.0960214 0.956939 0.0882126
123 3 0.0962252 0.991775 0.0793185
124 3 0.0955828 0.979015 0.111518
125 3 0.105536 0.984068 0.080731
126 2 0.078848 0.999273 0.0779347
127 4 0.057396 0.977774 0.0660667
128 2 0.0545112 0.951418 0.0870255
129 4 0.0268862 0.931981 0.0830096
130 3 0.00742274 0.939556 0.106199
131 3 0.978758 0.956431 0.0932808
132 4 0.972385 0.979219 0.0748583
133 1 0.956778 0.00748408 0.0785779
134 4 0.972546 0.0363198 0.0722737
135 3 0.00782697 0.0275129 0.0621105
136 2 0.0263562 0.00386444 0.0513635
137 1 0.0308146 0.981548 0.0309485
138 4 0.0406099 0.980265 -7.18429e-05
139 3 0.0320253 0.977424 0.0331777
140 4 0.0436637 0.98541 0.00328938
141 2 0.0371977 0.960187 0.984342
142 3 0.0185527 0.938684 0.965955
143 3 0.992329 0.943373 0.945608
144 2 0.984497 0.975827 0.947841
145 1 0.976939 0.00679835 0.957845
146 4 0.994499 0.0317483 0.96197
147 1 0.975131 0.00491275 0.95962
148 1 0.983112 0.037358 0.96912
149 2 -9.53584e-05 0.0626823 0.954121
150 3 0.0286209 0.0603862 0.940625
151 2 0.996101 0.0695972 0.933392
152 4 0.0274562 0.0560673 0.936017
153 4 0.0389929 0.0784066 0.916774
154 3 0.00946622 0.0872867 0.910969
155 2 0.0251128 0.0806753 0.884527
156 4 0.991423 0.0790442 0.888877
157 3 0.967215 0.107474 0.891209
158 1 0.974424 0.0775822 0.901714
159 3 0.946839 0.0912154 0.880276
160 2 0.950475 0.104864 0.853188
ITEM: TIMESTEP
4000
ITEM: NUMBER OF ATOMS
160
ITEM: BOX BOUNDS pp pp pp
0.0000000000000000e+00 3.0000000000000000e+01
0.0000000000000000e+00 3.0000000000000000e+01
0.0000000000000000e+00 3.0000000000000000e+01
ITEM: ATOMS id type xs ys zs
1 2 0.932198 0.10813 0.0689285
2 2 0.94664 0.113719 0.0978553
3 3 0.929878 0.113648 0.0676054
4 3 0.93689 0.0859573 0.0797738
5 3 0.948926 0.0626382 0.0622181
6 2 0.968578 0.0775658 0.0848727
7 4 0.943837 0.0656039 0.0731115
8 3 0.947881 0.0414518 0.0473031
9 3 0.929073 0.0536826 0.0281078
10 2 0.919353 0.0231333 0.0149194
11 4 0.887407 0.0322263 0.998856
12 1 0.888322 0.0306321 0.9651
13 2 0.920845 0.0429345 0.958326
14 4 0.935038 0.0519697 0.986211
15 4 0.947379 0.0863968 0.985977
16 1 0.932266 0.0545816 0.988223
17 4 0.947889 0.0843884 0.984578
18 2 0.961587 0.116187 0.980776
19 3 0.983744 0.0938015 0.974372
20 2 0.0111285 0.0969262 0.995148
21 2 0.986134 0.106936 0.978399
22 1 0.986939 0.0727506 0.980481
23 2 0.0108316 0.0676923 0.00520239
24 3 0.0119159 0.0379661 0.0108863
25 1 0.0369244 0.0249788 0.0231427
26 2 0.0227986 0.0493146 0.0193082
27 1 0.00660567 0.0448556 0.0461215
28 4 0.979388 0.0210515 0.047418
29 3 0.987337 0.050628 0.0488108
30 2 0.00125143 0.0213528 0.0486519
31 1 0.987413 0.989398 0.0471327
32 4 0.00137969 0.00911189 0.0666334
33 1 0.988212 0.998425 0.100236
34 2 0.978317 0.976344 0.125433
35 2 0.975299 0.0105946 0.128505
36 1 0.969609 0.987004 0.108038
37 3 0.946854 0.00479752 0.120851
38 1 0.934343 0.0206831 0.0965988
39 3 0.944773 0.0456971 0.114047
40 2 0.930126 0.0186138 0.118903
41 2 0.0682388 0.918914 0.929852
42 2 0.0648715 0.940796 0.904782
43 3 0.0573104 0.945008 0.935802
44 3 0.05881 0.913894 0.947875
45 3 0.0291405 0.91088 0.948136
46 2 0.0439352 0.92194 0.974732
47 4 0.0312315 0.908464 0.951411
48 2 0.0289377 0.880704 0.972377
49 1 0.0318323 0.905109 0.991646
50 4 0.045535 0.920668 0.014852
51 2 0.0512124 0.93541 0.0428129
52 2 0.0759149 0.944758 0.0569257
53 1 0.105665 0.94718 0.0449634
54 4 0.127031 0.972624 0.050142
55 3 0.134724 0.942039 0.036563
56 2 0.122558 0.966849 0.0182711
57 2 0.114801 0.96318 0.988409
58 4 0.0962215 0.957271 0.960489
59 1 0.0663732 0.966481 0.975234
60 3 0.0984906 0.961025 0.977555
61 1 0.0693128 0.964937 0.973386
62 2 0.0391612 0.961548 0.971737
63 4 0.00878805 0.98092 0.980019
64 3 0.00494714 0.995289 0.010319
65 3 0.985694 0.972106 0.00298975
66 2 0.00515839 0.994507 0.0122565
67 3 0.975355 0.975196 0.00243133
68 1 0.940163 0.986762 0.997551
69 4 0.964933 0.0130984 0.0156475
70 1 0.972534 0.0436341 0.00985335
71 1 0.959129 0.013038 0.0151817
72 3 0.970917 0.0439802 0.0106394
73 4 0.968511 0.0778344 0.0184957
74 1 0.938278 0.0950207 0.0294096
75 3 0.975596 0.0881625 0.0264652
76 2 0.954213 0.105016 0.0275367
77 2 0.9267 0.096171 0.0228065
78 1 0.905353 0.0833109 0.00276341
79 3 0.915909 0.113378 0.999941
80 2 0.905437 0.0814825 0.983507
81 2 0.0493074 0.0874561 0.968296
82 2 0.0379048 0.096248 0.937547
83 3 0.0110168 0.0900106 0.921628
84 3 0.0318464 0.104658 0.942422
85 3 0.0216164 0.0857353 0.916155
86 2 0.000611024 0.0825325 0.940142
87 4 0.979261 0.0598041 0.939437
88 2 0.963103 0.0837653 0.940983
89 1 0.983321 0.0570765 0.942847
90 3 0.949708 0.076071 0.942046
91 2 0.942388 0.0762471 0.907674
92 1 0.965253 0.0655649 0.889532
93 1 0.956352 0.0400206 0.903979
94 3 0.951611 0.0227773 0.933088
95 2 0.981779 0.0122804 0.925473
96 3 0.00318776 0.00325878 0.946953
97 4 0.980264 0.0178439 0.930181
98 4 0.00584954 0.00268713 0.946949
99 1 0.036796 0.00585726 0.962148
100 4 0.0473608 0.986487 0.937005
101 3 0.0777334 0.999789 0.950402
102 2 0.0478259 0.00183305 0.958762
103 3 0.0777877 0.998712 0.943093
104 4 0.0822248 0.0157424 0.967145
105 2 0.0759487 0.00666893 0.995201
106 4 0.0829924 0.00198204 0.0273854
107 1 0.0671921 0.00721128 8.43896e-06
108 3 0.0861045 0.985102 0.0140509
109 3 0.0714456 0.954617 0.0165645
110 2 0.0842333 0.928958 0.998762
111 1 0.0760284 0.956053 0.0141465
112 4 0.078683 0.928372 0.998087
113 3 0.0957729 0.909156 0.97732
114 3 0.0692993 0.888233 0.985975
115 1 0.0909353 0.886153 0.00324245
116 4 0.0698748 0.899863 0.0266917
117 3 0.0396238 0.881695 0.0262878
118 1 0.0126349 0.899663 0.0324152
119 3 0.001885 0.888418 0.0610768
120 2 0.973162 0.892526 0.0485669
121 2 0.989621 0.937443 0.112054
122 2 0.0227659 0.937558 0.110602
123 3 0.997451 0.944644 0.095111
124 3 0.0181416 0.972074 0.0898817
125 3 0.989295 0.959491 0.0773213
126 2 0.963642 0.958411 0.0547694
127 4 0.945381 0.9668 0.0296987
128 2 0.934058 0.996122 0.0442317
129 4 0.95688 0.00318269 0.0640551
130 3 0.938314 0.992071 0.0375138
131 3 0.949483 0.000536646 0.0679948
132 4 0.971847 0.0290371 0.0817574
133 1 0.00367347 0.0448355 0.0842544
134 4 0.032003 0.0261496 0.0814487
135 3 0.0550947 0.0154571 0.0605965
136 2 0.0412149 0.988375 0.0493944
137 1 0.0420332 0.976201 0.0181846
138 4 0.0203061 0.946972 0.0142928
139 3 0.0274138 0.967346 0.0366431
140 4 0.0237238 0.956748 0.01091
141 2 0.00906051 0.941584 0.986743
142 3 0.00358256 0.94246 0.955233
143 3 0.976613 0.956633 0.967953
144 2 0.968704 0.991963 0.962239
145 1 0.954355 0.0183537 0.974155
146 4 0.987408 0.0295978 0.9715
147 1 0.965833 0.00575722 0.970214
148 1 0.985198 0.0326929 0.976283
149 2 0.0121213 0.0447978 0.966977
150 3 0.0437449 0.0474464 0.98619
151 2 0.0214737 0.049983 0.967361
152 4 0.0542171 0.048051 0.989132
153 4 0.0754406 0.0544796 0.954876
154 3 0.0490208 0.0545459 0.933311
155 2 0.0341395 0.0278446 0.925748
156 4 0.0636059 0.0417858 0.942301
157 3 0.0345497 0.0502953 0.926293
158 1 0.0157759 0.0300665 0.911223
159 3 0.0282547 0.0564743 0.894307
160 2 0.00156339 0.0489942 0.908198
ITEM: TIMESTEP
5000
ITEM: NUMBER OF ATOMS
160
ITEM: BOX BOUNDS pp pp pp
0.0000000000000000e+00 3.0000000000000000e+01
0.0000000000000000e+00 3.0000000000000000e+01
0.0000000000000000e+00 3.0000000000000000e+01
ITEM: ATOMS id type xs ys zs
1 2 0.977973 0.164292 0.00950889
2 2 0.958307 0.16389 0.0341887
3 3 0.953371 0.161213 0.0651714
4 3 0.950364 0.129069 0.0588284
5 3 0.959005 0.0945617 0.059888
6 2 0.940121 0.0659678 0.0611071
7 4 0.917705 0.0659042 0.0369612
8 3 0.929471 0.0333675 0.0326802
9 3 0.92355 0.0532255 0.00842956
10 2 0.896298 0.0583025 0.0290804
11 4 0.887552 0.0410695 0.00237678
12 1 0.913215 0.0241569 0.992126
13 2 0.935601 0.0170032 0.968729
14 4 0.951594 0.0479503 0.967843
15 4 0.972847 0.0688835 0.946639
16 1 0.946003 0.05257 0.96087
17 4 0.981002 0.0660631 0.957765
18 2 0.00660198 0.0868172 0.959182
19 3 0.0336553 0.101146 0.965904
20 2 0.017775 0.132007 0.971554
21 2 0.0144818 0.0984284 0.977372
22 1 0.0453455 0.103179 0.991494
23 2 0.0644334 0.069325 0.993569
24 3 0.0726682 0.0438647 0.0143986
25 1 0.0632959 0.0750794 0.0112567
26 2 0.0505116 0.0433904 0.0161336
27 1 0.0222844 0.0636951 0.0181685
28 4 0.00859587 0.035172 0.0317008
29 3 0.0273567 0.0464219 0.00987001
30 2 0.00653961 0.0286213 0.031898
31 1 0.0230012 0.0281882 0.0577823
32 4 0.00892731 0.0224416 0.087537
33 1 0.0139196 0.012343 0.117349
34 2 0.00466855 0.0398203 0.0990757
35 2 0.010957 0.0729923 0.112512
36 1 0.978326 0.069758 0.107472
37 3 0.9607 0.0427819 0.101179
38 1 0.929101 0.0407307 0.0884827
39 3 0.895903 0.0457871 0.101688
40 2 0.8701 0.0238385 0.0903104
41 2 0.0135685 0.92958 0.925007
42 2 0.0388349 0.9409 0.945972
43 3 0.0230912 0.939959 0.919236
44 3 0.0373015 0.935347 0.947846
45 3 0.0345382 0.916723 0.978473
46 2 0.00782904 0.90804 0.996478
47 4 0.997431 0.932555 0.00916349
48 2 0.984944 0.933241 0.977594
49 1 0.997955 0.921713 0.00402495