# LAMMPS data file
160 atoms
160 ellipsoids
156 bonds

4 atom types
1 bond types

# System size
0.000000 30.000000 xlo xhi
0.000000 30.000000 ylo yhi
0.000000 30.000000 zlo zhi

Masses

1 3.1575
2 3.1575
3 3.1575
4 3.1575

# Atom-ID, type, position, molecule-ID, ellipsoid flag, density
Atoms

1 2 -8.047550201416016e+00 -2.624699592590332e+00  2.392571449279785e+00 1 1 1
2 2 -7.884681224822998e+00 -2.324425458908081e+00  2.116724967956543e+00 1 1 1
3 3 -7.592821598052979e+00 -1.943209886550903e+00  2.029472589492798e+00 1 1 1
4 3 -7.214461803436279e+00 -1.538607239723206e+00  2.147119760513306e+00 1 1 1
5 3 -5.636959552764893e+00  4.731389582157135e-01  2.966198921203613e+00 1 1 1
6 2 -5.362767696380615e+00  8.685497045516968e-01  3.193870067596436e+00 1 1 1
7 4 -4.902138233184814e+00  1.114533066749573e+00  3.432636260986328e+00 1 1 1
8 3 -4.469477176666260e+00  1.175794959068298e+00  3.602150440216064e+00 1 1 1
9 3 -3.980247259140015e+00  9.775820374488831e-01  3.701901197433472e+00 1 1 1
10 2 -3.519257307052612e+00  8.947640657424927e-01  3.628587007522583e+00 1 1 1
11 4 -3.160636425018311e+00  8.020252585411072e-01  3.281449556350708e+00 1 1 1
12 1 -2.747165918350220e+00  8.812486529350281e-01  2.889818906784058e+00 1 1 1
13 2 -2.412959575653076e+00  1.102635502815247e+00  2.537727594375610e+00 1 1 1
14 4 -2.237213373184204e+00  1.545589208602905e+00  2.340294837951660e+00 1 1 1
15 4 -2.060332059860229e+00  2.037145137786865e+00  2.240962028503418e+00 1 1 1
16 1 -1.837019920349121e+00  2.402104139328003e+00  2.407860040664673e+00 1 1 1
17 4 -1.359323740005493e+00  2.697310924530029e+00  2.570824384689331e+00 1 1 1
18 2 -8.982497453689575e-01  2.723407745361328e+00  2.676287174224854e+00 1 1 1
19 3 -4.113558232784271e-01  2.717575073242188e+00  2.575191259384155e+00 1 1 1
20 2 -4.384283721446991e-02  2.408893585205078e+00  2.582134962081909e+00 1 1 1
21 2  3.753675222396851e-01  2.131082057952881e+00  2.375657081604004e+00 1 1 1
22 1  7.943461537361145e-01  2.015735387802124e+00  2.033812761306763e+00 1 1 1
23 2  1.608392715454102e+00  7.465444207191467e-01  1.578611493110657e+00 1 1 1
24 3  1.556341528892517e+00  2.245951145887375e-01  1.639665603637695e+00 1 1 1
25 1  1.517007708549500e+00 -3.171585798263550e-01  1.577650189399719e+00 1 1 1
26 2  1.626689791679382e+00 -7.887029647827148e-01  1.324147701263428e+00 1 1 1
27 1  1.951442003250122e+00 -1.164346694946289e+00  1.135303735733032e+00 1 1 1
28 4  2.341800689697266e+00 -1.422063589096069e+00  1.123981833457947e+00 1 1 1
29 3  2.896206855773926e+00 -1.547445535659790e+00  1.142750263214111e+00 1 1 1
30 2  3.277475595474243e+00 -1.810344457626343e+00  1.397161126136780e+00 1 1 1
31 1  3.518781185150146e+00 -2.131669521331787e+00  1.793849945068359e+00 1 1 1
32 4  3.518299102783203e+00 -2.600501060485840e+00  2.269236087799072e+00 1 1 1
33 1  3.390199422836304e+00 -3.096715211868286e+00  2.468304157257080e+00 1 1 1
34 2  3.026013374328613e+00 -3.588329792022705e+00  2.502401828765869e+00 1 1 1
35 2  2.729414701461792e+00 -4.072181701660156e+00  2.345099449157715e+00 1 1 1
36 1  2.516285657882690e+00 -4.422929286956787e+00  2.024967908859253e+00 1 1 1
37 3  2.532187461853027e+00 -4.655869483947754e+00  1.529661059379578e+00 1 1 1
38 1  2.778166532516479e+00 -4.899201393127441e+00  1.143883824348450e+00 1 1 1
39 3  3.171843528747559e+00 -5.306650161743164e+00  9.331315755844116e-01 1 1 1
40 2  3.544954299926758e+00 -5.628863334655762e+00  8.519448637962341e-01 1 1 1
41 2  5.882319927215576e+00 -4.118368148803711e+00  3.294374048709869e-01 2 1 1
42 2  5.727400779724121e+00 -3.619374752044678e+00  2.649939358234406e-01 2 1 1
43 3  5.814831733703613e+00 -3.124268770217896e+00  4.134710878133774e-02 2 1 1
44 3  5.804247379302979e+00 -2.797640323638916e+00 -2.997703850269318e-01 2 1 1
45 3  6.233201503753662e+00 -5.614559650421143e-01 -3.628667593002319e-01 2 1 1
46 2  5.943954467773438e+00 -2.369673699140549e-01 -8.209338784217834e-01 2 1 1
47 4  5.432982921600342e+00 -1.063035950064659e-01 -1.057726144790649e+00 2 1 1
48 2  4.951303482055664e+00  1.263810396194458e-01 -1.074201941490173e+00 2 1 1
49 1  4.561205863952637e+00  3.674533665180206e-01 -9.017520546913147e-01 2 1 1
50 4  4.230782985687256e+00  6.865512728691101e-01 -6.091102361679077e-01 2 1 1
51 2  4.299460887908936e+00  9.146238565444946e-01 -1.214351579546928e-01 2 1 1
52 2  4.436786651611328e+00  1.352507948875427e+00  2.117922455072403e-01 2 1 1
53 1  4.354459762573242e+00  1.979762792587280e+00  3.033937215805054e-01 2 1 1
54 4  4.260988235473633e+00  2.533881187438965e+00  3.375156596302986e-02 2 1 1
55 3  4.118079662322998e+00  2.886698246002197e+00 -3.816441595554352e-01 2 1 1
56 2  3.714777708053589e+00  3.047888040542603e+00 -7.241412401199341e-01 2 1 1
57 2  3.151242733001709e+00  3.048707008361816e+00 -9.054446816444397e-01 2 1 1
58 4  2.625741243362427e+00  2.975164175033569e+00 -9.390570521354675e-01 2 1 1
59 1  2.128572702407837e+00  2.825897693634033e+00 -5.999952554702759e-01 2 1 1
60 3  1.836152911186218e+00  2.883434772491455e+00 -2.426590919494629e-01 2 1 1
61 1  1.508920907974243e+00  3.055943250656128e+00  2.439130097627640e-01 2 1 1
62 2  1.339810132980347e+00  3.402764320373535e+00  5.775770545005798e-01 2 1 1
63 4  4.437207579612732e-01  3.027015447616577e+00  1.578277230262756e+00 2 1 1
64 3 -5.698891822248697e-03  2.739236116409302e+00  1.477838158607483e+00 2 1 1
65 3 -4.514167904853821e-01  2.444722175598145e+00  1.489839076995850e+00 2 1 1
66 2 -7.104007005691528e-01  2.038756370544434e+00  1.669791817665100e+00 2 1 1
67 3 -7.846573591232300e-01  1.737701654434204e+00  2.078148126602173e+00 2 1 1
68 1 -9.370582103729248e-01  1.521251440048218e+00  2.539044141769409e+00 2 1 1
69 4 -1.229881048202515e+00  1.510051369667053e+00  2.902755022048950e+00 2 1 1
70 1 -1.555196285247803e+00  1.646774530410767e+00  3.291514873504639e+00 2 1 1
71 1 -2.092437267303467e+00  1.866399526596069e+00  3.456411838531494e+00 2 1 1
72 3 -2.581507682800293e+00  1.941902995109558e+00  3.377428054809570e+00 2 1 1
73 4 -3.014335155487061e+00  1.981280326843262e+00  3.158047437667847e+00 2 1 1
74 1 -3.448354244232178e+00  1.921815514564514e+00  2.836946249008179e+00 2 1 1
75 3 -3.759704828262329e+00  1.586815237998962e+00  2.671248197555542e+00 2 1 1
76 2 -4.015460968017578e+00  1.166658759117126e+00  2.519484281539917e+00 2 1 1
77 2 -4.160202503204346e+00  6.590350270271301e-01  2.552589893341064e+00 2 1 1
78 1 -4.376776218414307e+00  2.305423170328140e-01  2.875510931015015e+00 2 1 1
79 3 -4.627453804016113e+00 -9.606362134218216e-02  3.344773292541504e+00 2 1 1
80 2 -4.942030906677246e+00 -6.332291662693024e-02  3.719340324401855e+00 2 1 1
81 2 -9.318610191345215e+00 -2.533133327960968e-02 -5.627892017364502e+00 3 1 1
82 2 -9.000883102416992e+00  1.856337301433086e-02 -5.273759365081787e+00 3 1 1
83 3 -8.546127319335938e+00  6.310341507196426e-02 -5.223070621490479e+00 3 1 1
84 3 -7.859652996063232e+00 -9.725722670555115e-01 -5.345585346221924e+00 3 1 1
85 3 -5.685357093811035e+00  1.100383639335632e+00 -4.861965656280518e+00 3 1 1
86 2 -5.168412685394287e+00  1.030328035354614e+00 -4.838007926940918e+00 3 1 1
87 4 -4.660701751708984e+00  1.136667013168335e+00 -4.933384418487549e+00 3 1 1
88 2 -4.153713703155518e+00  1.356986999511719e+00 -4.897277355194092e+00 3 1 1
89 1 -3.777384281158447e+00  1.739876151084900e+00 -4.764252185821533e+00 3 1 1
90 3 -3.511981010437012e+00  2.115463972091675e+00 -4.480671405792236e+00 3 1 1
91 2 -3.499600172042847e+00  2.458050727844238e+00 -4.083035945892334e+00 3 1 1
92 1 -3.371698856353760e+00  2.420064926147461e+00 -3.585278272628784e+00 3 1 1
93 1 -3.085353612899780e+00  2.389651775360107e+00 -3.088941812515259e+00 3 1 1
94 3 -2.798936128616333e+00  2.183647394180298e+00 -2.746812105178833e+00 3 1 1
95 2 -2.286861419677734e+00  1.974926471710205e+00 -2.513253450393677e+00 3 1 1
96 3 -1.793539524078369e+00  1.733114361763000e+00 -2.562568187713623e+00 3 1 1
97 4 -1.233882308006287e+00  1.790737628936768e+00 -2.706479310989380e+00 3 1 1
98 4 -7.017170190811157e-01  2.013542413711548e+00 -2.703087091445923e+00 3 1 1
99 1 -4.325196743011475e-01  2.363672971725464e+00 -2.520992279052734e+00 3 1 1
100 4 -2.849689424037933e-01  2.804811000823975e+00 -2.189459323883057e+00 3 1 1
101 3 -1.455417126417160e-01  3.027967453002930e+00 -1.766529560089111e+00 3 1 1
102 2 -4.664225876331329e-02  3.203207254409790e+00 -1.247480034828186e+00 3 1 1
103 3  1.098115682601929e+00  3.839499235153198e+00 -5.837451815605164e-01 3 1 1
104 4  1.671427011489868e+00  3.992871522903442e+00 -4.794466197490692e-01 3 1 1
105 2  2.122285366058350e+00  3.998388051986694e+00 -1.768238395452499e-01 3 1 1
106 4  2.594686508178711e+00  3.799829959869385e+00 -8.636067807674408e-02 3 1 1
107 1  2.864547491073608e+00  3.364920616149902e+00  1.629687547683716e-01 3 1 1
108 3  2.958441019058228e+00  2.806396007537842e+00  2.591039240360260e-01 3 1 1
109 3  3.194085836410522e+00  2.331937551498413e+00  7.200904935598373e-02 3 1 1
110 2  3.294444799423218e+00  2.035210609436035e+00 -2.304681539535522e-01 3 1 1
111 1  3.532080888748169e+00  1.800412654876709e+00 -6.236777305603027e-01 3 1 1
112 4  4.046715736389160e+00  1.793860316276550e+00 -8.196912407875061e-01 3 1 1
113 3  4.523174285888672e+00  1.736793518066406e+00 -9.076544642448425e-01 3 1 1
114 3  4.961317062377930e+00  1.639239788055420e+00 -8.009080290794373e-01 3 1 1
115 1  5.287446022033691e+00  1.348150849342346e+00 -5.582442283630371e-01 3 1 1
116 4  5.565891265869141e+00  8.692746758460999e-01 -3.340506553649902e-01 3 1 1
117 3  5.480103969573975e+00  4.373686015605927e-01 -5.207034572958946e-02 3 1 1
118 1  5.325756072998047e+00  3.915449138730764e-03  1.359404772520065e-01 3 1 1
119 3  5.119259834289551e+00 -4.577394723892212e-01 -2.600165270268917e-02 3 1 1
120 2  5.049599647521973e+00 -9.111945629119873e-01 -3.296909332275391e-01 3 1 1
121 2  2.092059135437012e+00 -9.834415435791016e+00  6.068261265754700e-01 4 1 1
122 2  2.346410512924194e+00 -9.322959899902344e+00  8.280867338180542e-01 4 1 1
123 3  2.229176044464111e+00 -8.859612464904785e+00  1.016572833061218e+00 4 1 1
124 3  2.033254384994507e+00 -8.527647972106934e+00  1.252029299736023e+00 4 1 1
125 3  2.889140367507935e+00 -6.061600685119629e+00  1.756021618843079e+00 4 1 1
126 2  3.220037460327148e+00 -5.700047969818115e+00  2.029569864273071e+00 4 1 1
127 4  3.504981517791748e+00 -5.241050720214844e+00  2.050375223159790e+00 4 1 1
128 2  3.651027441024780e+00 -4.841573238372803e+00  1.901391506195068e+00 4 1 1
129 4  3.671228647232056e+00 -4.345691204071045e+00  1.744588494300842e+00 4 1 1
130 3  3.509412765502930e+00 -3.921157598495483e+00  1.459498763084412e+00 4 1 1
131 3  3.151149511337280e+00 -3.484874725341797e+00  1.362673759460449e+00 4 1 1
132 4  2.789559841156006e+00 -3.082394361495972e+00  1.368974566459656e+00 4 1 1
133 1  2.495037555694580e+00 -2.736807346343994e+00  1.644851207733154e+00 4 1 1
134 4  2.355433702468872e+00 -2.405117750167847e+00  1.930671334266663e+00 4 1 1
135 3  2.362999677658081e+00 -1.935002088546753e+00  2.228995561599731e+00 4 1 1
136 2  2.428411722183228e+00 -1.295622706413269e+00  2.198554754257202e+00 4 1 1
137 1  2.651213884353638e+00 -8.989225625991821e-01  2.157174110412598e+00 4 1 1
138 4  2.778853893280029e+00 -4.749777317047119e-01  1.767406344413757e+00 4 1 1
139 3  2.686837673187256e+00 -2.205015271902084e-01  1.296900272369385e+00 4 1 1
140 4  2.438745260238647e+00 -9.981855005025864e-02  8.626532554626465e-01 4 1 1
141 2  2.107459068298340e+00  2.324951887130737e-01  6.052098870277405e-01 4 1 1
142 3  1.608217239379883e+00  3.782716095447540e-01  4.740583002567291e-01 4 1 1
143 3  2.637796103954315e-01  2.021134614944458e+00 -1.354286909103394e+00 4 1 1
144 2 -2.726942300796509e-01  1.896775841712952e+00 -1.327693223953247e+00 4 1 1
145 1 -7.452710866928101e-01  2.095795154571533e+00 -1.357226610183716e+00 4 1 1
146 4 -1.157756805419922e+00  2.317885160446167e+00 -1.630900740623474e+00 4 1 1
147 1 -1.433885931968689e+00  2.715606451034546e+00 -2.073199272155762e+00 4 1 1
148 1 -1.483610153198242e+00  2.909406661987305e+00 -2.500413179397583e+00 4 1 1
149 2 -1.761055827140808e+00  2.818719863891602e+00 -3.104032516479492e+00 4 1 1
150 3 -1.913383483886719e+00  2.553681373596191e+00 -3.477624416351318e+00 4 1 1
151 2 -2.092453956604004e+00  2.068439960479736e+00 -3.678961515426636e+00 4 1 1
152 4 -2.531049013137817e+00  1.712409138679504e+00 -3.823307275772095e+00 4 1 1
153 4 -2.922500133514404e+00  1.315329790115356e+00 -3.744625568389893e+00 4 1 1
154 3 -3.444691181182861e+00  1.327650308609009e+00 -3.615257978439331e+00 4 1 1
155 2 -3.979241132736206e+00  1.415743708610535e+00 -3.637031078338623e+00 4 1 1
156 4 -4.389543533325195e+00  1.699061393737793e+00 -3.791075229644775e+00 4 1 1
157 3 -4.747831344604492e+00  2.038919210433960e+00 -4.115762233734131e+00 4 1 1
158 1 -4.921727180480957e+00  2.242855787277222e+00 -4.582437038421631e+00 4 1 1
159 3 -5.095693111419678e+00  2.197445392608643e+00 -5.120867252349854e+00 4 1 1
160 2 -5.363547801971436e+00  2.018360137939453e+00 -5.575925827026367e+00 4 1 1

# Atom-ID, translational, rotational velocity
Velocities

1  0.000000000000000e+00  0.000000000000000e+00  0.000000000000000e+00  0.000000000000000e+00  0.000000000000000e+00  0.000000000000000e+00
2  0.000000000000000e+00  0.000000000000000e+00  0.000000000000000e+00  0.000000000000000e+00  0.000000000000000e+00  0.000000000000000e+00
3  0.000000000000000e+00  0.000000000000000e+00  0.000000000000000e+00  0.000000000000000e+00  0.000000000000000e+00  0.000000000000000e+00
4  0.000000000000000e+00  0.000000000000000e+00  0.000000000000000e+00  0.000000000000000e+00  0.000000000000000e+00  0.000000000000000e+00
5  0.000000000000000e+00  0.000000000000000e+00  0.000000000000000e+00  0.000000000000000e+00  0.000000000000000e+00  0.000000000000000e+00
6  0.000000000000000e+00  0.000000000000000e+00  0.000000000000000e+00  0.000000000000000e+00  0.000000000000000e+00  0.000000000000000e+00
7  0.000000000000000e+00  0.000000000000000e+00  0.000000000000000e+00  0.000000000000000e+00  0.000000000000000e+00  0.000000000000000e+00
8  0.000000000000000e+00  0.000000000000000e+00  0.000000000000000e+00  0.000000000000000e+00  0.000000000000000e+00  0.000000000000000e+00
9  0.000000000000000e+00  0.000000000000000e+00  0.000000000000000e+00  0.000000000000000e+00  0.000000000000000e+00  0.000000000000000e+00
10  0.000000000000000e+00  0.000000000000000e+00  0.000000000000000e+00  0.000000000000000e+00  0.000000000000000e+00  0.000000000000000e+00
11  0.000000000000000e+00  0.000000000000000e+00  0.000000000000000e+00  0.000000000000000e+00  0.000000000000000e+00  0.000000000000000e+00
12  0.000000000000000e+00  0.000000000000000e+00  0.000000000000000e+00  0.000000000000000e+00  0.000000000000000e+00  0.000000000000000e+00
13  0.000000000000000e+00  0.000000000000000e+00  0.000000000000000e+00  0.000000000000000e+00  0.000000000000000e+00  0.000000000000000e+00
14  0.000000000000000e+00  0.000000000000000e+00  0.000000000000000e+00  0.000000000000000e+00  0.000000000000000e+00  0.000000000000000e+00
15  0.000000000000000e+00  0.000000000000000e+00  0.000000000000000e+00  0.000000000000000e+00  0.000000000000000e+00  0.000000000000000e+00
16  0.000000000000000e+00  0.000000000000000e+00  0.000000000000000e+00  0.000000000000000e+00  0.000000000000000e+00  0.000000000000000e+00
17  0.000000000000000e+00  0.000000000000000e+00  0.000000000000000e+00  0.000000000000000e+00  0.000000000000000e+00  0.000000000000000e+00
18  0.000000000000000e+00  0.000000000000000e+00  0.000000000000000e+00  0.000000000000000e+00  0.000000000000000e+00  0.000000000000000e+00
19  0.000000000000000e+00  0.000000000000000e+00  0.000000000000000e+00  0.000000000000000e+00  0.000000000000000e+00  0.000000000000000e+00
20  0.000000000000000e+00  0.000000000000000e+00  0.000000000000000e+00  0.000000000000000e+00  0.000000000000000e+00  0.000000000000000e+00
21  0.000000000000000e+00  0.000000000000000e+00  0.000000000000000e+00  0.000000000000000e+00  0.000000000000000e+00  0.000000000000000e+00
22  0.000000000000000e+00  0.000000000000000e+00  0.000000000000000e+00  0.000000000000000e+00  0.000000000000000e+00  0.000000000000000e+00
23  0.000000000000000e+00  0.000000000000000e+00  0.000000000000000e+00  0.000000000000000e+00  0.000000000000000e+00  0.000000000000000e+00
24  0.000000000000000e+00  0.000000000000000e+00  0.000000000000000e+00  0.000000000000000e+00  0.000000000000000e+00  0.000000000000000e+00
25  0.000000000000000e+00  0.000000000000000e+00  0.000000000000000e+00  0.000000000000000e+00  0.000000000000000e+00  0.000000000000000e+00
26  0.000000000000000e+00  0.000000000000000e+00  0.000000000000000e+00  0.000000000000000e+00  0.000000000000000e+00  0.000000000000000e+00
27  0.000000000000000e+00  0.000000000000000e+00  0.000000000000000e+00  0.000000000000000e+00  0.000000000000000e+00  0.000000000000000e+00
28  0.000000000000000e+00  0.000000000000000e+00  0.000000000000000e+00  0.000000000000000e+00  0.000000000000000e+00  0.000000000000000e+00
29  0.000000000000000e+00  0.000000000000000e+00  0.000000000000000e+00  0.000000000000000e+00  0.000000000000000e+00  0.000000000000000e+00
30  0.000000000000000e+00  0.000000000000000e+00  0.000000000000000e+00  0.000000000000000e+00  0.000000000000000e+00  0.000000000000000e+00
31  0.000000000000000e+00  0.000000000000000e+00  0.000000000000000e+00  0.000000000000000e+00  0.000000000000000e+00  0.000000000000000e+00
32  0.000000000000000e+00  0.000000000000000e+00  0.000000000000000e+00  0.000000000000000e+00  0.000000000000000e+00  0.000000000000000e+00
33  0.000000000000000e+00  0.000000000000000e+00  0.000000000000000e+00  0.000000000000000e+00  0.000000000000000e+00  0.000000000000000e+00
34  0.000000000000000e+00  0.000000000000000e+00  0.000000000000000e+00  0.000000000000000e+00  0.000000000000000e+00  0.000000000000000e+00
35  0.000000000000000e+00  0.000000000000000e+00  0.000000000000000e+00  0.000000000000000e+00  0.000000000000000e+00  0.000000000000000e+00
36  0.000000000000000e+00  0.000000000000000e+00  0.000000000000000e+00  0.000000000000000e+00  0.000000000000000e+00  0.000000000000000e+00
37  0.000000000000000e+00  0.000000000000000e+00  0.000000000000000e+00  0.000000000000000e+00  0.000000000000000e+00  0.000000000000000e+00
38  0.000000000000000e+00  0.000000000000000e+00  0.000000000000000e+00  0.000000000000000e+00  0.000000000000000e+00  0.000000000000000e+00
39  0.000000000000000e+00  0.000000000000000e+00  0.000000000000000e+00  0.000000000000000e+00  0.000000000000000e+00  0.000000000000000e+00
40  0.000000000000000e+00  0.000000000000000e+00  0.000000000000000e+00  0.000000000000000e+00  0.000000000000000e+00  0.000000000000000e+00
41  0.000000000000000e+00  0.000000000000000e+00  0.000000000000000e+00  0.000000000000000e+00  0.000000000000000e+00  0.000000000000000e+00
42  0.000000000000000e+00  0.000000000000000e+00  0.000000000000000e+00  0.000000000000000e+00  0.000000000000000e+00  0.000000000000000e+00
43  0.000000000000000e+00  0.000000000000000e+00  0.000000000000000e+00  0.000000000000000e+00  0.000000000000000e+00  0.000000000000000e+00
44  0.000000000000000e+00  0.000000000000000e+00  0.000000000000000e+00  0.000000000000000e+00  0.000000000000000e+00  0.000000000000000e+00
45  0.000000000000000e+00  0.000000000000000e+00  0.000000000000000e+00  0.000000000000000e+00  0.000000000000000e+00  0.000000000000000e+00
46  0.000000000000000e+00  0.000000000000000e+00  0.000000000000000e+00  0.000000000000000e+00  0.000000000000000e+00  0.000000000000000e+00
47  0.000000000000000e+00  0.000000000000000e+00  0.000000000000000e+00  0.000000000000000e+00  0.000000000000000e+00  0.000000000000000e+00
48  0.000000000000000e+00  0.000000000000000e+00  0.000000000000000e+00  0.000000000000000e+00  0.000000000000000e+00  0.000000000000000e+00
49  0.000000000000000e+00  0.000000000000000e+00  0.000000000000000e+00  0.000000000000000e+00  0.000000000000000e+00  0.000000000000000e+00
50  0.000000000000000e+00  0.000000000000000e+00  0.000000000000000e+00  0.000000000000000e+00  0.000000000000000e+00  0.000000000000000e+00
51  0.000000000000000e+00  0.000000000000000e+00  0.000000000000000e+00  0.000000000000000e+00  0.000000000000000e+00  0.000000000000000e+00
52  0.000000000000000e+00  0.000000000000000e+00  0.000000000000000e+00  0.000000000000000e+00  0.000000000000000e+00  0.000000000000000e+00
53  0.000000000000000e+00  0.000000000000000e+00  0.000000000000000e+00  0.000000000000000e+00  0.000000000000000e+00  0.000000000000000e+00
54  0.000000000000000e+00  0.000000000000000e+00  0.000000000000000e+00  0.000000000000000e+00  0.000000000000000e+00  0.000000000000000e+00
55  0.000000000000000e+00  0.000000000000000e+00  0.000000000000000e+00  0.000000000000000e+00  0.000000000000000e+00  0.000000000000000e+00
56  0.000000000000000e+00  0.000000000000000e+00  0.000000000000000e+00  0.000000000000000e+00  0.000000000000000e+00  0.000000000000000e+00
57  0.000000000000000e+00  0.000000000000000e+00  0.000000000000000e+00  0.000000000000000e+00  0.000000000000000e+00  0.000000000000000e+00
58  0.000000000000000e+00  0.000000000000000e+00  0.000000000000000e+00  0.000000000000000e+00  0.000000000000000e+00  0.000000000000000e+00
59  0.000000000000000e+00  0.000000000000000e+00  0.000000000000000e+00  0.000000000000000e+00  0.000000000000000e+00  0.000000000000000e+00
60  0.000000000000000e+00  0.000000000000000e+00  0.000000000000000e+00  0.000000000000000e+00  0.000000000000000e+00  0.000000000000000e+00
61  0.000000000000000e+00  0.000000000000000e+00  0.000000000000000e+00  0.000000000000000e+00  0.000000000000000e+00  0.000000000000000e+00
62  0.000000000000000e+00  0.000000000000000e+00  0.000000000000000e+00  0.000000000000000e+00  0.000000000000000e+00  0.000000000000000e+00
63  0.000000000000000e+00  0.000000000000000e+00  0.000000000000000e+00  0.000000000000000e+00  0.000000000000000e+00  0.000000000000000e+00
64  0.000000000000000e+00  0.000000000000000e+00  0.000000000000000e+00  0.000000000000000e+00  0.000000000000000e+00  0.000000000000000e+00
65  0.000000000000000e+00  0.000000000000000e+00  0.000000000000000e+00  0.000000000000000e+00  0.000000000000000e+00  0.000000000000000e+00
66  0.000000000000000e+00  0.000000000000000e+00  0.000000000000000e+00  0.000000000000000e+00  0.000000000000000e+00  0.000000000000000e+00
67  0.000000000000000e+00  0.000000000000000e+00  0.000000000000000e+00  0.000000000000000e+00  0.000000000000000e+00  0.000000000000000e+00
68  0.000000000000000e+00  0.000000000000000e+00  0.000000000000000e+00  0.000000000000000e+00  0.000000000000000e+00  0.000000000000000e+00
69  0.000000000000000e+00  0.000000000000000e+00  0.000000000000000e+00  0.000000000000000e+00  0.000000000000000e+00  0.000000000000000e+00
70  0.000000000000000e+00  0.000000000000000e+00  0.000000000000000e+00  0.000000000000000e+00  0.000000000000000e+00  0.000000000000000e+00
71  0.000000000000000e+00  0.000000000000000e+00  0.000000000000000e+00  0.000000000000000e+00  0.000000000000000e+00  0.000000000000000e+00
72  0.000000000000000e+00  0.000000000000000e+00  0.000000000000000e+00  0.000000000000000e+00  0.000000000000000e+00  0.000000000000000e+00
73  0.000000000000000e+00  0.000000000000000e+00  0.000000000000000e+00  0.000000000000000e+00  0.000000000000000e+00  0.000000000000000e+00
74  0.000000000000000e+00  0.000000000000000e+00  0.000000000000000e+00  0.000000000000000e+00  0.000000000000000e+00  0.000000000000000e+00
75  0.000000000000000e+00  0.000000000000000e+00  0.000000000000000e+00  0.000000000000000e+00  0.000000000000000e+00  0.000000000000000e+00
76  0.000000000000000e+00  0.000000000000000e+00  0.000000000000000e+00  0.000000000000000e+00  0.000000000000000e+00  0.000000000000000e+00
77  0.000000000000000e+00  0.000000000000000e+00  0.000000000000000e+00  0.000000000000000e+00  0.000000000000000e+00  0.000000000000000e+00
78  0.000000000000000e+00  0.000000000000000e+00  0.000000000000000e+00  0.000000000000000e+00  0.000000000000000e+00  0.000000000000000e+00
79  0.000000000000000e+00  0.000000000000000e+00  0.000000000000000e+00  0.000000000000000e+00  0.000000000000000e+00  0.000000000000000e+00
80  0.000000000000000e+00  0.000000000000000e+00  0.000000000000000e+00  0.000000000000000e+00  0.000000000000000e+00  0.000000000000000e+00
81  0.000000000000000e+00  0.000000000000000e+00  0.000000000000000e+00  0.000000000000000e+00  0.000000000000000e+00  0.000000000000000e+00
82  0.000000000000000e+00  0.000000000000000e+00  0.000000000000000e+00  0.000000000000000e+00  0.000000000000000e+00  0.000000000000000e+00
83  0.000000000000000e+00  0.000000000000000e+00  0.000000000000000e+00  0.000000000000000e+00  0.000000000000000e+00  0.000000000000000e+00
84  0.000000000000000e+00  0.000000000000000e+00  0.000000000000000e+00  0.000000000000000e+00  0.000000000000000e+00  0.000000000000000e+00
85  0.000000000000000e+00  0.000000000000000e+00  0.000000000000000e+00  0.000000000000000e+00  0.000000000000000e+00  0.000000000000000e+00
86  0.000000000000000e+00  0.000000000000000e+00  0.000000000000000e+00  0.000000000000000e+00  0.000000000000000e+00  0.000000000000000e+00
87  0.000000000000000e+00  0.000000000000000e+00  0.000000000000000e+00  0.000000000000000e+00  0.000000000000000e+00  0.000000000000000e+00
88  0.000000000000000e+00  0.000000000000000e+00  0.000000000000000e+00  0.000000000000000e+00  0.000000000000000e+00  0.000000000000000e+00
89  0.000000000000000e+00  0.000000000000000e+00  0.000000000000000e+00  0.000000000000000e+00  0.000000000000000e+00  0.000000000000000e+00
90  0.000000000000000e+00  0.000000000000000e+00  0.000000000000000e+00  0.000000000000000e+00  0.000000000000000e+00  0.000000000000000e+00
91  0.000000000000000e+00  0.000000000000000e+00  0.000000000000000e+00  0.000000000000000e+00  0.000000000000000e+00  0.000000000000000e+00
92  0.000000000000000e+00  0.000000000000000e+00  0.000000000000000e+00  0.000000000000000e+00  0.000000000000000e+00  0.000000000000000e+00
93  0.000000000000000e+00  0.000000000000000e+00  0.000000000000000e+00  0.000000000000000e+00  0.000000000000000e+00  0.000000000000000e+00
94  0.000000000000000e+00  0.000000000000000e+00  0.000000000000000e+00  0.000000000000000e+00  0.000000000000000e+00  0.000000000000000e+00
95  0.000000000000000e+00  0.000000000000000e+00  0.000000000000000e+00  0.000000000000000e+00  0.000000000000000e+00  0.000000000000000e+00
96  0.000000000000000e+00  0.000000000000000e+00  0.000000000000000e+00  0.000000000000000e+00  0.000000000000000e+00  0.000000000000000e+00
97  0.000000000000000e+00  0.000000000000000e+00  0.000000000000000e+00  0.000000000000000e+00  0.000000000000000e+00  0.000000000000000e+00
98  0.000000000000000e+00  0.000000000000000e+00  0.000000000000000e+00  0.000000000000000e+00  0.000000000000000e+00  0.000000000000000e+00
99  0.000000000000000e+00  0.000000000000000e+00  0.000000000000000e+00  0.000000000000000e+00  0.000000000000000e+00  0.000000000000000e+00
100  0.000000000000000e+00  0.000000000000000e+00  0.000000000000000e+00  0.000000000000000e+00  0.000000000000000e+00  0.000000000000000e+00
101  0.000000000000000e+00  0.000000000000000e+00  0.000000000000000e+00  0.000000000000000e+00  0.000000000000000e+00  0.000000000000000e+00
102  0.000000000000000e+00  0.000000000000000e+00  0.000000000000000e+00  0.000000000000000e+00  0.000000000000000e+00  0.000000000000000e+00
103  0.000000000000000e+00  0.000000000000000e+00  0.000000000000000e+00  0.000000000000000e+00  0.000000000000000e+00  0.000000000000000e+00
104  0.000000000000000e+00  0.000000000000000e+00  0.000000000000000e+00  0.000000000000000e+00  0.000000000000000e+00  0.000000000000000e+00
105  0.000000000000000e+00  0.000000000000000e+00  0.000000000000000e+00  0.000000000000000e+00  0.000000000000000e+00  0.000000000000000e+00
106  0.000000000000000e+00  0.000000000000000e+00  0.000000000000000e+00  0.000000000000000e+00  0.000000000000000e+00  0.000000000000000e+00
107  0.000000000000000e+00  0.000000000000000e+00  0.000000000000000e+00  0.000000000000000e+00  0.000000000000000e+00  0.000000000000000e+00
108  0.000000000000000e+00  0.000000000000000e+00  0.000000000000000e+00  0.000000000000000e+00  0.000000000000000e+00  0.000000000000000e+00
109  0.000000000000000e+00  0.000000000000000e+00  0.000000000000000e+00  0.000000000000000e+00  0.000000000000000e+00  0.000000000000000e+00
110  0.000000000000000e+00  0.000000000000000e+00  0.000000000000000e+00  0.000000000000000e+00  0.000000000000000e+00  0.000000000000000e+00
111  0.000000000000000e+00  0.000000000000000e+00  0.000000000000000e+00  0.000000000000000e+00  0.000000000000000e+00  0.000000000000000e+00
112  0.000000000000000e+00  0.000000000000000e+00  0.000000000000000e+00  0.000000000000000e+00  0.000000000000000e+00  0.000000000000000e+00
113  0.000000000000000e+00  0.000000000000000e+00  0.000000000000000e+00  0.000000000000000e+00  0.000000000000000e+00  0.000000000000000e+00
114  0.000000000000000e+00  0.000000000000000e+00  0.000000000000000e+00  0.000000000000000e+00  0.000000000000000e+00  0.000000000000000e+00
115  0.000000000000000e+00  0.000000000000000e+00  0.000000000000000e+00  0.000000000000000e+00  0.000000000000000e+00  0.000000000000000e+00
116  0.000000000000000e+00  0.000000000000000e+00  0.000000000000000e+00  0.000000000000000e+00  0.000000000000000e+00  0.000000000000000e+00
117  0.000000000000000e+00  0.000000000000000e+00  0.000000000000000e+00  0.000000000000000e+00  0.000000000000000e+00  0.000000000000000e+00
118  0.000000000000000e+00  0.000000000000000e+00  0.000000000000000e+00  0.000000000000000e+00  0.000000000000000e+00  0.000000000000000e+00
119  0.000000000000000e+00  0.000000000000000e+00  0.000000000000000e+00  0.000000000000000e+00  0.000000000000000e+00  0.000000000000000e+00